ITEM: TIMESTEP energy, energy_weight, force_weight, nsims
0 -21605.8119643677346176 1 1 366
ITEM: NUMBER OF ATOMS
16
ITEM: BOX BOUNDS xy xz yz pp pp pp
-0.2764478875547738 18.8255635626583954 6.146794182967799
-0.1628334351433664 11.0891052748649894 -0.2764478875547738
0.0 15.8367465417064146 -0.1628334351433664
ITEM: ATOMS id type x y z
1 1 -0.2151881957496051 -0.0883311420043674 7.8643762998446052
2 1 2.9635822721892696 -0.1100677198534555 7.9333722535028572
3 1 6.2225605704480316 -0.1425382748944712 7.8003388315285608
4 1 9.4004457106544592 -0.0897369786390061 7.9809363380662174
5 1 1.3994900745286137 2.7368796650460788 8.0263038658842447
6 1 4.4993486398358434 2.7928674986594646 7.928047939315535
7 1 7.758353356534462 2.5849477707326712 7.9238527851566368
8 1 10.8203865063959964 2.605669479018712 7.8203659812052032
9 1 3.034398362961213 5.4271704113277419 7.834918367602378
10 1 5.997232615949593 5.4402601845061218 7.9854577292038762
11 1 9.2179391972864995 5.4666660255997792 7.9228598211484726
12 1 12.3720827626582004 5.3752953297946924 7.9565968423062702
13 1 4.4496682807053265 8.1297741883039816 7.827231210831032
14 1 7.6974950738984172 8.3274440647504413 7.788952210765073
15 1 10.7883607220611886 8.3001613362254894 8.0428500986710194
16 1 14.1179435079512832 8.2765648082177599 7.8672728407870834
ITEM: TIMESTEP energy, energy_weight, force_weight, nsims
1 -21606.4498860232670272 1 1 366
ITEM: NUMBER OF ATOMS
16
ITEM: BOX BOUNDS xy xz yz pp pp pp
0.0 19.3956644278161861 6.4917201039422814
0.0 11.0186873897301894 0.2251749441833051
0.0 16.1259112349490188 0.1279287830410781
ITEM: ATOMS id type x y z
1 1 0.036606963985772 0.0858800898238601 7.9652390457552116
2 1 3.356606998112293 0.1202020747066517 8.1781333258790081
3 1 6.3673376923525895 0.0395938008276472 8.1878395118513261
4 1 9.6613607703657626 0.1014673878261187 7.9363285120931958
5 1 1.8104083087838018 2.8754329763044938 8.169030248986882
6 1 4.8783182601662816 2.741798621728134 8.1475650485420399
7 1 8.1190666173016855 2.6966407650420906 8.028900918128544
8 1 11.2303890887104352 2.7149536129097478 8.1564407500857552
9 1 3.3686287045198187 5.5982999565798322 8.1323518638829882
10 1 6.4249552598075806 5.406974655421382 8.1367800391081051
11 1 9.6657920445572448 5.4026147967959855 8.0620622419920931
12 1 12.9090147091045928 5.4114618377406219 7.9290960409043202
13 1 4.9578062795299562 8.2432437342880114 8.1315262172277603
14 1 8.2503926603185107 8.2573993700585451 8.0264836440344265
15 1 11.3247721615503121 8.1251361735766281 7.9696011047442656
16 1 14.3747051299526927 8.1841180900474839 7.9370332144141624
ITEM: TIMESTEP energy, energy_weight, force_weight, nsims
2 -21605.6071752041352736 1 1 366
ITEM: NUMBER OF ATOMS
16
ITEM: BOX BOUNDS xy xz yz pp pp pp
0.0 19.5912999282190868 6.5579665694386594
0.0 11.1298240521189698 0.225180141709327
0.0 16.1259259938083304 0.1279278343321062
ITEM: ATOMS id type x y z
1 1 0.0405128259131906 0.0093337177909154 8.09357645481081
2 1 3.2466358165762519 0.1440009479912912 8.2190377716352394
3 1 6.5119013385534378 -0.0555630298027761 8.1354764483205244
4 1 9.800361449178844 0.0553134723846352 8.0520505827841564
5 1 1.6318051283523852 2.7605523259074284 8.1755042218223544
6 1 5.0575608828952428 2.8706356225115966 7.8438374641298996
7 1 8.2487386764995527 2.9248934137605804 8.0774876184467868
8 1 11.2694993692854802 2.8688461419797774 7.9699680068830698
9 1 3.4353347884370034 5.4485745449732051 7.9166347318437484
10 1 6.6535810955730198 5.628678924472772 7.923851083725979
11 1 9.593855679436084 5.4557801254598646 8.2129195953131884
12 1 13.2243904828678307 5.6927513004039972 8.0147690544790695
13 1 5.154741448088088 8.3142529508196237 8.0405044197725868
14 1 8.1867940180648677 8.2700552634703648 7.8666233975591524
15 1 11.3403030003086034 8.2711566235729102 7.9541420231127474
16 1 14.8166779002237288 8.3935814077732509 8.204477673055429
ITEM: TIMESTEP energy, energy_weight, force_weight, nsims
3 -21603.9721616634706160 1 1 366
ITEM: NUMBER OF ATOMS
16
ITEM: BOX BOUNDS xy xz yz pp pp pp
-0.2764492917795218 19.2097843938202786 6.27224733936868
-0.1628447789043823 11.315428658564457 -0.2764492917795218
0.0 15.8367614831318768 -0.1628447789043823
ITEM: ATOMS id type x y z
1 1 -0.2735737158437733 -0.1313914684719114 8.1221951108254
2 1 3.0725630194208526 -0.1383046461734963 7.9359484610791764
3 1 6.2233711543475909 -0.1958155109541877 7.9610576464106816
4 1 9.4317569732525648 -0.1293266351490515 7.8653766845580444
5 1 1.294510789881866 2.611430414453671 8.0511735702781468
6 1 4.5358118172875592 2.6856457265490494 7.9824277723560214
7 1 8.1203654705023443 2.8773113314793438 8.1167567669320935
8 1 11.0889038098515194 2.6860324436024726 7.7244025848636486
9 1 2.9093807610251318 5.6333048024032744 8.0233547150568789
10 1 6.2294783535963321 5.7109702995506418 8.1248350989646365
11 1 9.4896157589592338 5.6106020661368828 7.7984837877294436
12 1 12.7214503593020202 5.6903119321015598 7.8114113361281232
13 1 4.5350481214149304 8.4248284303759071 7.7984790367009992
14 1 7.837774691663003 8.4098625094211279 8.1068334521867627
15 1 11.0578503531117516 8.3372906975109231 7.9071350572367658
16 1 14.3604634126647959 8.2964951793247597 7.7164303591330398
ITEM: TIMESTEP energy, energy_weight, force_weight, nsims
4 -21604.0287997690065824 1 1 366
ITEM: NUMBER OF ATOMS
16
ITEM: BOX BOUNDS xy xz yz pp pp pp
-0.2216070722057014 19.2488816307988309 6.3113445763472323
-0.1300222473972386 11.2936547837018147 -0.2216070722057014
0.0 15.8699333281394904 -0.1300222473972386
ITEM: ATOMS id type x y z
1 1 -0.116050088436766 0.0440378455088694 8.1097914366058621
2 1 3.2543286858192247 -0.1406477532603112 8.1466525307471312
3 1 6.4508040457794182 0.0275439025373076 7.7245980018585954
4 1 9.7750886045458288 0.0538789451081083 7.9536360536369672
5 1 1.4784324362891574 2.7009627189413088 7.935006338903066
6 1 4.8462158048054046 2.8007954320120692 7.811611259303449
7 1 7.872673672099694 2.828837206389152 8.008223863305771
8 1 11.1155533027496834 2.6033101457259652 7.8497847969309564
9 1 3.1587678659954737 5.5205144772143716 8.0223401690011507
10 1 6.2367832066520652 5.6299443617752232 7.8210840225070158
11 1 9.5725961131700538 5.4554579699838568 7.9286710615184716
12 1 12.7205435480930476 5.5532305385655798 8.1023547858482967
13 1 4.733231414268154 8.4895949373183922 8.1146873110375939
14 1 7.7942356685923828 8.5519059814530732 7.747674471911041
15 1 11.0534079974381463 8.5145930581468542 8.0907491036054289
16 1 14.2264609683627619 8.4658254835759746 7.8036715316593828
ITEM: TIMESTEP energy, energy_weight, force_weight, nsims
5 -21604.1905462309296128 1 1 366
ITEM: NUMBER OF ATOMS
16
ITEM: BOX BOUNDS xy xz yz pp pp pp
-0.166531976964901 19.2879918053144408 6.3504547508628395
-0.0973290912606394 11.271712720857467 -0.166531976964901
0.0 15.9028464224060144 -0.0973290912606394
ITEM: ATOMS id type x y z
1 1 -0.0725887899707498 0.0146240306223571 8.1302268649533271
2 1 3.2839067615239461 -0.124884115593076 8.0704385235436504
3 1 6.3591624369616211 -0.0131877380539345 8.078097334380681
4 1 9.823927554522797 -0.0015726132487341 7.9291639970655652
5 1 1.3112968138544905 2.6715103088731742 7.8931265567877508
6 1 4.7140230222547652 2.8985692550342042 8.0251058695319397
7 1 7.9253573466283918 2.8326664744588928 8.1494963439633583
8 1 10.9872344252465712 2.632696604231776 8.1289784915091694
9 1 3.161398628458544 5.6791518210787482 8.0601271179233631
10 1 6.1544550712858177 5.4762247310228576 7.8229457052410308
11 1 9.4746985064222874 5.6527460282268304 8.0687098841375367
12 1 12.7713857983358352 5.6412326520078918 8.0417100314815748
13 1 4.6311666410690284 8.5153809834789876 8.0488551803791619
14 1 7.9658046325105242 8.3258894144715381 7.9574122231656838
15 1 11.0908784665383795 8.2714404158023882 8.1476388915012201
16 1 14.4835548735600402 8.4893967530528426 7.8224352238708716
ITEM: TIMESTEP energy, energy_weight, force_weight, nsims
6 -21604.3630422116657424 1 1 366
ITEM: NUMBER OF ATOMS
16
ITEM: BOX BOUNDS xy xz yz pp pp pp
-0.1112498811312293 19.3271019798300472 6.3895649253784468
-0.0647523729575303 11.2495895324943547 -0.1112498811312293
0.0 15.9355007659314528 -0.0647523729575303
ITEM: ATOMS id type x y z
1 1 -0.1113063427060911 -0.0508338410895137 7.8726250046935746
2 1 3.1301905556093277 0.0280331853532332 7.911776936525392
3 1 6.3364235524921977 -0.0645187142383574 7.9160285281297424
4 1 9.6694669599227776 -0.1210980027029049 8.1625746282298497
5 1 1.3456832192381068 2.6694459218241868 8.1376594727823175
6 1 4.9193017329489032 2.7683338674815472 7.9151807594889946
7 1 8.0666449384651031 2.7610617813957736 8.0655975447686981
8 1 11.1569215050436039 2.7729002120041392 8.056895167800425
9 1 2.9718710048537318 5.4788462696714736 7.989025870038322
10 1 6.544080117770446 5.7033616154557976 7.9960916710779362
11 1 9.4576619620883716 5.5633293090459156 8.0574704393780738
12 1 12.8721797931164126 5.69234888860671 7.9690841843798346
13 1 4.874087411518266 8.3749093168940761 7.9615642215683912
14 1 7.8551574697852624 8.477847784070388 7.772696666490572
15 1 11.2616122224888447 8.3111346813396168 7.993854326770398
16 1 14.4362372978870806 8.3149763170013316 8.0304231139280571
ITEM: TIMESTEP energy, energy_weight, force_weight, nsims
7 -21604.365431764617824 1 1 366
ITEM: NUMBER OF ATOMS
16
ITEM: BOX BOUNDS xy xz yz pp pp pp
-0.0557349096305775 19.3662121543456536 6.4286750998940541
-0.0323179675620201 11.2272852186124794 -0.0557349096305775
0.0 15.967883421178744 -0.0323179675620201
ITEM: ATOMS id type x y z
1 1 0.106409770556868 0.0496377636256735 7.9643459240549008
2 1 3.0130553127656734 -0.0737032157117685 7.9999814494859454
3 1 6.588424027240289 0.085089746890128 8.1991999566252556
4 1 9.7020671714269736 -0.089673785290372 7.9920949118642258
5 1 1.4878520046291498 2.904992325067782 7.7996180451053378
6 1 4.809967381542169 2.7526077817685772 8.0508934489860327
7 1 8.0148232393176428 2.8470328820522224 7.9780942716805364
8 1 11.2778295365348065 2.699120124584546 7.9553560056887766
9 1 3.1294109064946878 5.6811279242314124 7.828112733070431
10 1 6.465212752065371 5.6988828267877434 7.9883919596988538
11 1 9.4284645609151099 5.4472629060799474 8.135205470238196
12 1 12.7969809539692162 5.5990391351843778 7.9825700694034918
13 1 4.7840454587045996 8.3574350731185412 8.0385183393346171
14 1 8.0046675794879594 8.3863351881806203 7.9453441427836982
15 1 11.1070823387097484 8.309837442990073 8.0893329347458352
16 1 14.5796031524209938 8.4379940687062902 7.9076743090047952
ITEM: TIMESTEP energy, energy_weight, force_weight, nsims
8 -21604.421230268078944 1 1 366
ITEM: NUMBER OF ATOMS
16
ITEM: BOX BOUNDS xy xz yz pp pp pp
0.0 19.40532232886126 6.4677852744096614
0.0 11.2047997792118412 0.0
0.0 16.0000202632220017 0.0
ITEM: ATOMS id type x y z
1 1 -0.1927734635011725 -0.1368677497830506 7.8683811649095264
2 1 3.3391721807766177 0.1214902825660603 8.1865447678477477
3 1 6.5281341064756672 -0.1150945828520861 8.1728231504700091
4 1 9.6603882366851206 -0.0938670896703693 8.0791190317984487
5 1 1.4959446873529846 2.8758452004520918 8.1542759269808816
6 1 4.9121189661246678 2.8888349248361318 7.8801555798212304
7 1 8.0532550977020208 2.7803903906530084 7.915946025148032
8 1 11.1929510489383724 2.7114528600114074 7.910733218546273
9 1 3.2880139602399288 5.6350282665629862 7.9873205155402394
10 1 6.3791106189378262 5.5080465116251346 8.009016543017168
11 1 9.698686778104925 5.484169083295634 7.9399508555489434
12 1 12.9099007246527044 5.7181802062044946 7.8141458962232822
13 1 4.9693538647102696 8.4704700794912178 7.8116386930480362
14 1 8.0402578714625381 8.5543480901584186 8.0381077798597573
15 1 11.3250388744129662 8.4601414950547404 7.8843907851849054
16 1 14.6656726665555404 8.5116802125991812 7.9844501119050176
ITEM: TIMESTEP energy, energy_weight, force_weight, nsims
9 -21604.5940433955438496 1 1 366
ITEM: NUMBER OF ATOMS
16
ITEM: BOX BOUNDS xy xz yz pp pp pp
0.0 19.5003873511373698 6.5068954489252686
0.0 11.2143088689468655 0.0559548477605032
0.0 16.0318854169871159 0.0321756546544211
ITEM: ATOMS id type x y z
1 1 0.1979761528881472 0.1225060653778804 7.9992839763567672
2 1 3.4350490739352857 0.0667133448533077 8.0290792354042377
3 1 6.7262937613593526 0.1430342723885564 7.9162901119301078
4 1 9.6609776591454448 0.0371470851758339 8.1334772700511149
5 1 1.8187587396527772 2.9372413716271546 8.2366568814063026
6 1 4.7576944498546316 2.8863207982893004 8.1678800929674278
7 1 8.0681263394034168 2.7762548764035532 7.8708204785104484
8 1 11.3603292677296395 2.7711029823072862 8.2261479805154672
9 1 3.3873904014239784 5.7234998178632718 7.9099623267560224
10 1 6.4729414711594454 5.6955116420436136 7.899169661493307
11 1 9.8322569578086032 5.4518715563707012 8.2059606303983994
12 1 12.8869204530180514 5.7030817799771638 7.8444849003359646
13 1 5.1215268779512444 8.5351707331669058 8.1911086917481022
14 1 7.9423296658095106 8.3041458301440834 8.1600100404162301
15 1 11.3052580041564976 8.4095096690380889 8.2397782894969893
16 1 14.5451643362493552 8.4046023653519555 8.1146830907767829
ITEM: TIMESTEP energy, energy_weight, force_weight, nsims
10 -21604.7137571000785104 1 1 366
ITEM: NUMBER OF ATOMS
16
ITEM: BOX BOUNDS xy xz yz pp pp pp
0.0 19.5956852490804608 6.546005623440876
0.0 11.2235203953296328 0.1121425711879865
0.0 16.0634918200111407 0.0642348714753522
ITEM: ATOMS id type x y z
1 1 0.0913668517584529 0.0999663155913554 8.1052460231772141
2 1 3.1969799522850995 0.0191480082326932 7.87014075689953
3 1 6.4236180000412944 0.010523932960801 7.9150253657430048
4 1 9.9167890243911288 0.0141717876748675 7.961879358683615
5 1 1.68588081151161 2.845208175980305 7.9365889971621888
6 1 4.7438846693046086 2.6885421273201616 8.0111685769841365
7 1 8.2284246943718493 2.9075148561918792 7.841130090672591
8 1 11.4102994411175072 2.7461037521303036 8.1768827712977341
9 1 3.2883368030013833 5.546332017520272 7.8115202562007644
10 1 6.7896001171853388 5.7460056164799012 8.2095928596908241
11 1 9.9281152269622108 5.6184178099814854 8.2410403576268596
12 1 13.0132598015992471 5.5536577079517252 7.8468663636015156
13 1 4.9444060601589142 8.2647488388801893 8.1104891469072644
14 1 8.3645728584150892 8.3818774765885014 8.2217513166493888
15 1 11.4663491924320624 8.5105618634866574 8.1843490822956753
16 1 14.5308793969116312 8.2484098869763632 8.0757245379103981
ITEM: TIMESTEP energy, energy_weight, force_weight, nsims
11 -21604.6278904748978672 1 1 366
ITEM: NUMBER OF ATOMS
16
ITEM: BOX BOUNDS xy xz yz pp pp pp
0.0 19.6911901476164246 6.5851028604194282
0.0 11.2323955457489877 0.1685502327453954
0.0 16.0948524098311303 0.0961388378516298
ITEM: ATOMS id type x y z
1 1 0.0527384391075243 -0.0017554801289339 7.9433665461450432
2 1 3.3237932259602166 -0.0260205465519389 8.0917224577179034
3 1 6.6776222389914004 -0.0108103968261195 8.1393052793823255
4 1 9.6947044952499778 0.1808549224330064 8.2096446128690133
5 1 1.8720868282135936 2.7874108167654824 8.0989538749056393
6 1 4.9132053909291268 2.6904889157707786 8.150270702329145
7 1 8.1255399699366375 2.8992080399879376 8.0216406418697765
8 1 11.4371648662558912 2.8155444332471174 8.220524733098058
9 1 3.548793842075205 5.62474977496976 8.0700636148299925
10 1 6.4865761504513354 5.6787968011217762 8.0155294264097634
11 1 9.8948850239645036 5.6272405814119884 8.232945130702726
12 1 13.2673526884394004 5.6578133076041368 8.1973964301851297
13 1 5.0629373400971263 8.4053476255874724 8.196345436322769
14 1 8.3605653640626585 8.3204673602958241 8.0453805491742774
15 1 11.5445841436473486 8.5434219041054132 8.0671939026453217
16 1 14.8626340397347488 8.4912988626973186 8.0521275113044766
ITEM: TIMESTEP energy, energy_weight, force_weight, nsims
12 -21604.9290793172658592 1 1 366
ITEM: NUMBER OF ATOMS
16
ITEM: BOX BOUNDS xy xz yz pp pp pp
-0.2764511790372627 19.0176739782393405 6.2095207611682399
-0.162842860001842 11.2022669667147241 -0.2764511790372627
0.0 15.8367563186265148 -0.162842860001842
ITEM: ATOMS id type x y z
1 1 -0.2903491918751193 -0.1347728564680799 7.927699674082401
2 1 3.1142248403655595 -0.0479345142909663 8.0054264740942198
3 1 6.2091479079049679 -0.1131426986776587 8.0242532100058011
4 1 9.5293589484576966 -0.1253945816097122 8.0183666876821693
5 1 1.4795049057781968 2.6290950381480944 8.0128064025387005
6 1 4.4697723351837802 2.6534823780608408 8.0330695322483834
7 1 7.7971008147701566 2.6393050986965966 7.7697216951015742
8 1 11.0088408471987442 2.618960116031019 7.9134719322057468
9 1 2.9804348866525098 5.5791199905081284 7.802890197535306
10 1 6.1590517688552167 5.4780721585952676 7.9669621603475394
11 1 9.2985373413357699 5.4652771459952092 7.9547393518208232
12 1 12.4749175456992402 5.5371048379937094 7.973380797683479
13 1 4.4851646090060192 8.2823614778787942 7.940809340962959
14 1 7.7043461265192264 8.3901619111246149 7.8289337433012874
15 1 10.9678675383087878 8.2693528932713143 8.0060076830511129
16 1 14.2110991014142325 8.3233703890491846 7.8462797424970772
ITEM: TIMESTEP energy, energy_weight, force_weight, nsims
13 -21604.6711556282680256 1 1 366
ITEM: NUMBER OF ATOMS
16
ITEM: BOX BOUNDS xy xz yz pp pp pp
0.0 19.7869279218193662 6.6242130349350354
0.0 11.2409601952790333 0.2251778324327301
0.0 16.1259413113729764 0.1279263663944174
ITEM: ATOMS id type x y z
1 1 0.2945008476643364 0.1738171332673463 8.1507280283029786
2 1 3.5614392722341144 0.1655887058578744 8.2260523001684032
3 1 6.7777740971901396 0.1809695048994825 8.2035437112859882
4 1 9.6061824773591074 -0.0727865676948995 7.9526547037695182
5 1 1.9225457336392652 2.956004148342299 8.2836831892269878
6 1 5.0271233173355219 2.9319831930337842 8.2562094230148038
7 1 8.3068441326946161 2.942216814693341 8.2399125467255292
8 1 11.2347956980553043 2.7117959456778094 7.963394580682892
9 1 3.5136360094179726 5.515565945216273 7.9116206335085976
10 1 6.6059819496936242 5.6732785390049436 8.1502974656699667
11 1 9.8234196761566288 5.4979804067064624 7.906823165968464
12 1 12.9847378533495962 5.4944451372278832 8.0348357258805372
13 1 4.9736707819394948 8.3941432076079181 7.9315555221577166
14 1 8.3068630498901382 8.270345236239054 8.2637160486952475
15 1 11.4359605298565246 8.3893160324423875 7.8856481924325
16 1 14.7873556653875706 8.5121880394027922 8.0118207824409442
ITEM: TIMESTEP energy, energy_weight, force_weight, nsims
14 -21602.9653564626314624 1 1 366
ITEM: NUMBER OF ATOMS
16
ITEM: BOX BOUNDS xy xz yz pp pp pp
-0.2764437783876 19.4018948094012203 6.33497391756912
-0.1628399681540117 11.4285903504141899 -0.2764437783876
0.0 15.8367814478782094 -0.1628399681540117
ITEM: ATOMS id type x y z
1 1 -0.1253127202097438 -0.0053841105538176 7.7188504450521284
2 1 3.024828749931157 -0.1952741563633053 8.0067789685560022
3 1 6.3039558831707625 -0.1356291148503842 8.0941045651377479
4 1 9.9092992890258458 0.0651539694746599 8.0488778846788964
5 1 1.3504962321620191 2.723886692293644 7.8068791947301604
6 1 4.8432394242066064 2.8491314069445108 7.7151889811813792
7 1 8.1375652355878163 2.7996324755003022 7.7166887243844942
8 1 11.2467886297253817 2.8990672915244758 7.921052886900493
9 1 2.8319527285013426 5.567027004122111 7.885721027490276
10 1 6.1899136366562413 5.6813714275204736 7.9667245809180302
11 1 9.4083397310929797 5.5275346538491138 8.1126557709257909
12 1 12.7609464193958182 5.571030076252237 7.9189893542778336
13 1 4.490313290358885 8.4946774607039632 7.922520956540711
14 1 7.8860963364114278 8.3345805145651699 7.9397038644116576
15 1 10.9696113655877294 8.4447908485347831 8.0847640314397875
16 1 14.6026416839201492 8.6095770043150176 8.0308968030229764
ITEM: TIMESTEP energy, energy_weight, force_weight, nsims
15 -21603.3090221494385328 1 1 366
ITEM: NUMBER OF ATOMS
16
ITEM: BOX BOUNDS xy xz yz pp pp pp
-0.2216019114045806 19.4413830443363338 6.3744621525042362
-0.1300158628737294 11.4065987225532375 -0.2216019114045806
0.0 15.8699452931016776 -0.1300158628737294
ITEM: ATOMS id type x y z
1 1 0.0645528792371112 0.0758915715604228 8.1525130956450891
2 1 3.173830740677067 0.0782444741555428 7.7948632475361618
3 1 6.3873012923625261 -0.0963752520056307 8.0412441482115664
4 1 9.6692395378394204 5.8613878049864336e-05 7.9500237026668162
5 1 1.5916380608535284 2.898319168452685 7.8798404566026036
6 1 4.706480724133245 2.7476467564214114 8.09750310427561
7 1 8.0238516363479189 2.731353610141468 7.9887590651382184
8 1 11.4476887534468617 2.7782781549323238 8.0355309679060483
9 1 3.2510447417668545 5.7490468743516612 8.0612974110839275
10 1 6.1843765306988949 5.539762066660428 8.0860751566700468
11 1 9.8433231143227484 5.7873421159468484 7.8475943147615502
12 1 12.6831932256768206 5.5966760801881224 7.8613995801720194
13 1 4.7378577757804274 8.5174772257620788 8.0014534343781705
14 1 7.9099446786039272 8.5564014743696078 7.7800311966652282
15 1 11.3001754359131432 8.3456820942009316 7.9701690112218798
16 1 14.4676889361307276 8.3909037381523266 8.1469697237542089
ITEM: TIMESTEP energy, energy_weight, force_weight, nsims
16 -21603.2888085696504272 1 1 366
ITEM: NUMBER OF ATOMS
16
ITEM: BOX BOUNDS xy xz yz pp pp pp
-0.1665379067664001 19.4808843461923438 6.4139634543602453
-0.0973224268023655 11.3844372247206902 -0.1665379067664001
0.0 15.9028608668282026 -0.0973224268023655
ITEM: ATOMS id type x y z
1 1 -0.236019319222852 -0.1595122168909709 7.9108113461880488
2 1 3.0447685120965202 -0.0112823878915534 7.7763303935538026
3 1 6.6354604859275232 -0.0309920518153297 8.0865872576351858
4 1 9.9540385795618178 0.0764961216755789 7.8291708293560118
5 1 1.5636214004865774 2.950062681941048 7.8324754438441398
6 1 4.8454602640017744 2.871130171927601 7.8984580038666962
7 1 8.0573606707420336 2.8910974276066672 7.9509024584333216
8 1 11.28628193618861 2.8716405503080004 8.0762408563552306
9 1 3.0584205382668759 5.5844430008137884 7.9969364697845294
10 1 6.3098874716597351 5.4855713632509008 7.7430234417543176
11 1 9.6911991328938498 5.6545998664882466 7.7524538382483464
12 1 12.853948654969397 5.6126081297716626 8.0665051249325561
13 1 4.6841933560870396 8.5583507877483528 7.8627783452258804
14 1 7.9063973893888368 8.5346576289303524 7.8821035017512502
15 1 11.1747135130899569 8.445118587350029 7.8544579684203556
16 1 14.5967156755539024 8.6004379192857048 7.8345014683185736
ITEM: TIMESTEP energy, energy_weight, force_weight, nsims
17 -21603.3728010223167072 1 1 366
ITEM: NUMBER OF ATOMS
16
ITEM: BOX BOUNDS xy xz yz pp pp pp
-0.1112517644730585 19.5203856480483538 6.4534647562162536
-0.0647596599399199 11.3620927899956588 -0.1112517644730585
0.0 15.9355020352160004 -0.0647596599399199
ITEM: ATOMS id type x y z
1 1 0.0439427632836477 0.0287234487773239 7.8393666454612818
2 1 3.2259252452501826 -0.0596995688891722 8.1482636040123175
3 1 6.6371090957321296 -0.020353987085702 7.7630419649134118
4 1 9.6973560389541956 -0.0805794951751122 8.1336778389994837
5 1 1.6142799145613012 2.9151247590062868 8.174251220731346
6 1 4.6770827244832828 2.7297213376035924 7.9743945284064824
7 1 8.178195020017295 2.7138933534732718 8.0919666624223066
8 1 11.2672332744993114 2.836613173609687 7.9471081682715808
9 1 3.2707898190912213 5.5327529827141584 7.7778572011555518
10 1 6.2285570670748873 5.5268586860740562 8.1107593999724355
11 1 9.5910952929556892 5.7109875845317318 8.0024346377876476
12 1 12.9604516837564976 5.6292582106266328 7.9170538114331644
13 1 4.5973940462608018 8.4051676071268986 7.8250326613806048
14 1 8.100021528968135 8.4324465330122536 7.8606198245256502
15 1 11.3119563650574637 8.5977956302943106 7.9403100831033582
16 1 14.6122876758174716 8.614370609276259 7.8841230964773904
ITEM: TIMESTEP energy, energy_weight, force_weight, nsims
18 -21603.3598963751755952 1 1 366
ITEM: NUMBER OF ATOMS
16
ITEM: BOX BOUNDS xy xz yz pp pp pp
-0.0557304176036639 19.5598869499043602 6.4929660580722618
-0.0323144953655008 11.3395654183781378 -0.0557304176036639
0.0 15.9678949321068516 -0.0323144953655008
ITEM: ATOMS id type x y z
1 1 -0.0185461812250618 0.1364747568336542 7.9322386318947826
2 1 3.1533413126865972 -0.0782506016136897 7.939200634085183
3 1 6.4200623823723788 -0.083139822166551 8.1648174087388945
4 1 9.743989226459874 0.0971728433848727 7.9334154657512804
5 1 1.60676322718606 2.7479690608087922 8.1192290687077264
6 1 4.7684909930943534 2.7541260886097212 7.7680758976767788
7 1 8.0439526832708861 2.7262624479651456 7.8689658482263108
8 1 11.2728796932795437 2.8325625058931584 8.1073202126673607
9 1 3.0549664963763719 5.5942771819413012 7.7824230512732786
10 1 6.4270970153490819 5.753356543903661 8.1533636377040928
11 1 9.6132218492093316 5.577244963883639 7.8469557018518944
12 1 12.8257513068367342 5.6332720724543854 7.791194215959484
13 1 4.8459113970699984 8.3497097213020162 7.9091634269283962
14 1 8.2145337233580804 8.5785265998437624 7.9975361446406482
15 1 11.4977491879535716 8.5268406290974356 8.1366133159203127
16 1 14.6009115982756034 8.6453186146651434 7.8295810353762692
ITEM: TIMESTEP energy, energy_weight, force_weight, nsims
19 -21603.6673793078989552 1 1 366
ITEM: NUMBER OF ATOMS
16
ITEM: BOX BOUNDS xy xz yz pp pp pp
0.0 19.5993882517603702 6.53246735992827
0.0 11.3168551098681345 0.0
0.0 16.0000264905798666 0.0
ITEM: ATOMS id type x y z
1 1 0.0083014036311628 -0.1562235263641747 7.9699843955724132
2 1 3.0750974521536594 -0.0464670070811186 7.7765440753013008
3 1 6.48393902266577 0.123756600739474 8.0319988982472506
4 1 9.7179433574780686 -0.0573832455200974 8.0792741765189664
5 1 1.8539336877583948 2.9453948753959618 8.0071268570676448
6 1 4.8418178534670266 2.7137411146679828 7.827083358977097
7 1 8.0328361330311147 2.865424318762079 8.0182052754097235
8 1 11.2434191599326816 2.7009858872736508 8.2022535801308632
9 1 3.2458553800270647 5.7304129386024272 7.9719171987724744
10 1 6.6906361367630228 5.7674530053770248 8.1108102287318982
11 1 9.8245916020774208 5.8100100390176852 8.1690615251761543
12 1 13.2773965534097673 5.7451124017046348 8.2194408085870432
13 1 4.9649229796951734 8.5021065366025344 7.8581490104112062
14 1 7.9507989363379564 8.4024548372470793 8.0852501864131998
15 1 11.6056907152986302 8.4748861050067674 7.8952818718905454
16 1 14.7515636510549638 8.4528827436166516 7.9062226900048022
ITEM: TIMESTEP energy, energy_weight, force_weight, nsims
20 -21603.602271847390512 1 1 366
ITEM: NUMBER OF ATOMS
16
ITEM: BOX BOUNDS xy xz yz pp pp pp
0.0 19.6948551757960964 6.571968661784279
0.0 11.3261456906222282 0.0559656221797169
0.0 16.0318967106350456 0.0321838261565825
ITEM: ATOMS id type x y z
1 1 -0.1885696512178471 -0.1260236795799589 8.0743172848616034
2 1 3.4331040925950318 -0.0570948992572595 8.1449409962512931
3 1 6.4572697892895122 -0.0191836515905954 8.1481553915417759
4 1 9.6532908491942404 -0.0237518247938653 8.2247846514392684
5 1 1.6794211836761744 2.9517172682312118 8.0702211352520354
6 1 5.0410695760822257 2.9339093331753002 8.0726627931210651
7 1 8.0188880573475156 2.7605325608440686 7.8376111394980876
8 1 11.5090564486153594 2.7874566169866234 7.9806990240198496
9 1 3.368148652661104 5.5938778960409162 8.0057055765090972
10 1 6.4090958677544192 5.6524659834320766 7.8727001518286572
11 1 9.7456942408620276 5.647315130202161 7.804224714598191
12 1 13.2663312259180408 5.7637218930826366 7.8981267400117244
13 1 4.9818043544816328 8.5087204704046702 7.9915253638685408
14 1 8.2204715266418838 8.3525408873245049 7.8886198252623174
15 1 11.3735068244377846 8.5085249995112876 7.8322693115141054
16 1 14.7332426722412002 8.5629749294132456 7.8230092879740428
ITEM: TIMESTEP energy, energy_weight, force_weight, nsims
21 -21603.5879948025649360 1 1 366
ITEM: NUMBER OF ATOMS
16
ITEM: BOX BOUNDS xy xz yz pp pp pp
0.0 19.7905311705660908 6.6114699636402882
0.0 11.3351095983540233 0.1121403150937031
0.0 16.0635055922723851 0.0642239161833548
ITEM: ATOMS id type x y z
1 1 0.0243345101844828 0.1802970728796584 8.1563590153660091
2 1 3.3240711639454075 0.0393375963546149 7.8248034408898306
3 1 6.574533736241576 0.0749960654726685 8.0930864731886079
4 1 9.8578515942170314 0.0704684499952214 8.0631794384769151
5 1 1.832696990197352 2.869462027124608 7.8756781694511152
6 1 4.8172003322317458 2.7768331881701198 8.2096866412312348
7 1 8.1496714092603462 2.7153787154506164 7.8973446257939718
8 1 11.5706366578451744 2.706177443089275 8.0908006363428253
9 1 3.1799681610993225 5.564112656456791 7.903998129810292
10 1 6.5465132621879204 5.718251751867956 8.0203220055567321
11 1 9.892967667804948 5.6686986851805666 8.0556874194686792
12 1 13.1044003883682407 5.650115070730391 8.0012353482119938
13 1 4.839817418131939 8.4925836364328404 7.9478707762839056
14 1 8.2580595100774268 8.563544957631553 8.1124590609328884
15 1 11.5157561629088648 8.584855025098829 8.211458445898062
16 1 14.8633011351756554 8.6411679024587472 7.8176760634585394
ITEM: TIMESTEP energy, energy_weight, force_weight, nsims
22 -21603.9512773271999328 1 1 366
ITEM: NUMBER OF ATOMS
16
ITEM: BOX BOUNDS xy xz yz pp pp pp
0.0 19.886429302991246 6.6509581985754044
0.0 11.3437729669053074 0.1685502125837423
0.0 16.094853135491892 0.0961464039221006
ITEM: ATOMS id type x y z
1 1 -0.0403432742375907 -0.0146793155108903 7.9634919086443556
2 1 3.5227565012848512 0.1290831250841423 7.9971575129478642
3 1 6.6735289421637098 -0.097363942064311 7.8341488403916024
4 1 9.9500379237967582 -0.0605450177916991 8.0406667294290397
5 1 1.841766122413024 2.8565179237184006 7.8842006146723548
6 1 5.055690335080155 2.8398148803110646 8.2206120159397784
7 1 8.2231771631915862 2.989268141382749 7.8593646467989774
8 1 11.5687736546777008 2.7792730747265542 8.0228577744346179
9 1 3.4903529493549122 5.5542311518196882 8.1375046322893532
10 1 6.7798003010761674 5.6323606189240438 8.0915763593819143
11 1 9.9583990588125638 5.5940698635360048 8.1894073146806878
12 1 13.0880750700811692 5.5517889959376366 7.8868482180131424
13 1 4.9826347757534944 8.5387164956732492 7.9265622681249698
14 1 8.3265652643675949 8.3613658305570074 8.2486605164990028
15 1 11.4567359982041684 8.4932799479415398 7.9253261834041648
16 1 14.9388411042527114 8.4266424460413969 7.930064508167253