ITEM: TIMESTEP energy, energy_weight, force_weight, nsims
0 -67612.6826884362799350 1 1 680
ITEM: NUMBER OF ATOMS
50
ITEM: BOX BOUNDS xy xz yz pp pp pp
-5.165145326566666 9.5091034936303984 -4.897549645152413
-0.4729732986696824 8.1508897143246877 -0.2675956814142531
0.0 15.3232546427408316 -0.4729732986696824
ITEM: ATOMS id type x y z
1 1 -0.0484788257081219 1.7548551875747818 1.3444470390994381
2 1 1.514923277056079 0.7769254960439752 3.778507730962212
3 1 -0.0938172959473248 1.6158926845360312 6.3620590304686369
4 1 1.4162456425796317 0.592024113062835 9.0010268803905351
5 1 -1.6867695900093544 4.5070773362508404 1.2130700507689709
6 1 -0.0910107757284466 3.4772234026004952 3.8504059740714172
7 1 -1.8186196995269224 4.3090881854696335 6.4242040219977375
8 1 -0.2557847458004225 3.3207876870610842 8.875020692812349
9 1 -1.8087069077495912 4.1623868472131616 11.4011879360071742
10 1 -0.308107138790246 3.2194794317564788 13.9868400537251176
11 1 -3.3207862447506953 7.2141749046071624 1.2537226453361621
12 1 -1.708533271292879 6.2206123328466267 3.8417192210144462
13 1 -3.4623055557317498 7.0816629245759026 6.3652937695237197
14 1 -1.8912106108548008 6.0890621261296873 9.0298453253971385
15 1 -3.485771866798403 6.8684883785722946 11.5386222068979158
16 1 -1.8829849315318108 5.8949017362171832 14.001695949101256
17 1 3.0833807785380185 1.7940367184151232 1.1862359672386032
18 1 4.666105755704388 0.8137109763339642 3.7620658787305512
19 1 3.0071203650644436 1.6490130885613186 6.3135731881280766
20 1 4.543442549898769 0.6385917656987318 8.9922864959423148
21 1 2.9507080814105842 1.4596632400074618 11.4378488227399302
22 1 4.510382231199773 0.4870943922523736 14.0381944093347997
23 1 1.4597523986493508 4.4901264598330198 1.3001168634179887
24 1 1.3404307990969031 4.3305121477691025 6.3776167309074126
25 1 2.9448557562355578 3.3645822006438984 8.9629102844667176
26 1 1.3246559759563237 4.1670611701983145 11.4169862115438381
27 1 2.7877422707826418 3.2330346124554428 14.0792300852680619
28 1 -0.1486985935331233 7.1633497380259037 1.2619711533103497
29 1 1.4231558743596626 6.2187248549321952 3.814960221431829
30 1 -0.1711675234090315 7.0250261717712021 6.3779523101840878
31 1 1.3401110485693029 6.0728311969220492 8.9469557117326968
32 1 1.2225529049691191 5.870572614981894 14.1310487354934153
33 1 6.3438927672180397 1.7617754259470244 1.2115361929792323
34 1 7.8227547429840456 0.7913242799365236 3.8662241698391178
35 1 6.1750016999270656 1.589272567256605 6.4184685277849587
36 1 7.7996150352935852 0.6083178904762944 8.9656102419347672
37 1 6.0582136898761618 1.4718098644618592 11.5136315109010728
38 1 7.6511454994626282 0.4734545343675194 14.0103137475123312
39 1 4.6941351931212908 4.4869180824956478 1.3423477532133825
40 1 6.1702100271040203 3.5259310696891406 3.8798633987966218
41 1 4.5706706581662876 4.3764233502990076 6.3315994648897975
42 1 6.1409012876671971 3.3815267879831508 9.0017118298730647
43 1 4.5170014283529314 4.1392646393597819 11.5561366869545684
44 1 6.0293448591141026 3.1395636172172052 14.1126301834128434
45 1 3.0701139544285216 7.1885035654451173 1.2796051547532157
46 1 4.546726486137934 6.2342940114767167 3.7868849542753984
47 1 2.9216364244264362 7.0587405352237367 6.4410703283830024
48 1 4.4578613269080788 6.0407134072942412 9.0236424719177553
49 1 2.800862791426884 6.8933596592721918 11.5461857653895716
50 1 4.3351610906755625 5.9426354779163812 14.0264230851182461
ITEM: TIMESTEP energy, energy_weight, force_weight, nsims
1 -67613.1163609348050150 1 1 680
ITEM: NUMBER OF ATOMS
50
ITEM: BOX BOUNDS xy xz yz pp pp pp
-4.6388449755047044 9.7270711639113952 -4.6388449755047044
0.0 8.672349931708391 0.217967670280996
0.0 15.6057225620191248 0.3715016552891524
ITEM: ATOMS id type x y z
1 1 -0.0148473339708177 1.8947377525021216 1.2178268927167988
2 1 0.1361242122879591 1.9861515823340896 6.5328051560221976
3 1 1.6799008442788398 1.1560054381908636 9.0719014734581407
4 1 0.1900444000618894 2.1095561126095062 11.7924829808568248
5 1 1.7449209198770842 1.2699642207316255 14.2904941125037404
6 1 -1.5667885544049346 4.6560258719763974 1.2308046115993738
7 1 0.1027535861089189 3.7709192284051758 3.9501517063434046
8 1 -1.4249407852295373 4.8015545280326606 6.5720020493812212
9 1 0.1990477366642649 3.8915644386237594 9.0291308696324144
10 1 -1.3745594843852669 4.8716459114277724 11.7878090669494996
11 1 0.2512030477431398 3.9970161837715614 14.3622211345432902
12 1 -3.0085215420611737 7.4272532615644078 1.3809519500853285
13 1 -1.482641195677519 6.537136697192409 3.8799087885194998
14 1 -2.9631064058389688 7.5386869294789562 6.4537902615461826
15 1 -2.8721934552998874 7.6227636510396756 11.6754931210983912
16 1 -1.3578180524523471 6.8158781262943924 14.3051447648449646
17 1 3.2660274280094832 1.860786973079517 1.2514977997166113
18 1 4.8229630397420342 0.9954941930995584 3.9709385287960144
19 1 4.9141399182461578 1.1764945762130421 9.0725007332045209
20 1 3.3667424969683984 2.0748068656243937 11.7371700578080046
21 1 5.0143234541579158 1.2662959726940428 14.3798602827551392
22 1 1.7203082598909606 4.6284222740753674 1.3355892357420514
23 1 3.250827766123162 3.7746094281872544 3.9868891378266538
24 1 1.6872008884324364 4.7738682864960512 6.5710079648540206
25 1 3.3722011047500074 3.8872658648744452 9.0658667405434059
26 1 1.7681781835418816 4.920671104892289 11.7639744468805284
27 1 3.4315357938086098 3.984158562763648 14.3267056311366492
28 1 0.065845877499047 7.4583260077654616 1.3368845107146987
29 1 1.6801099368460848 6.5723073111759538 3.966172541125574
30 1 0.2529417913640248 7.5027958683393576 6.5798844998472968
31 1 1.852675481577879 6.6250793802512248 9.1768359125374115
32 1 0.2602307474122783 7.689036808498348 11.6948114450579156
33 1 1.902280834725524 6.7711326513021328 14.2628236058290234
34 1 6.3379098058118553 1.907747171902032 1.2768399325850739
35 1 7.9666444749055208 0.9944769697969644 3.9566265206343862
36 1 6.4757887469287604 1.9968393195599472 6.5578929156129
37 1 8.0605159949731409 1.1125700164896024 9.1397754425971272
38 1 8.1368494569889318 1.280596976228845 14.2404996197040568
39 1 4.8388207317841002 4.6353542608089962 1.3412010535753534
40 1 6.4760023105604558 3.790073543136069 3.9559445505584256
41 1 4.9554088485171164 4.7459681645386206 6.4747971246869166
42 1 6.4766636897768084 3.9271760907191782 9.1618169651437231
43 1 4.9972615149610374 4.8785290060635918 11.7394812653194408
44 1 6.5923431629254416 4.0043567373155744 14.2361378202479703
45 1 3.3295584932528613 7.3674421081508914 1.3905666357557882
46 1 4.8813092844945238 6.5844669465353772 3.8982002559344432
47 1 3.3003479570864078 7.573291034130719 6.548301638526283
48 1 4.958769090201626 6.6538555875060724 9.0864397645969159
49 1 3.4778399467666304 7.6185830639690808 11.7955370207622128
50 1 5.1056545871879555 6.7775121965591706 14.3760243961494006
ITEM: TIMESTEP energy, energy_weight, force_weight, nsims
2 -67612.6112301500484150 1 1 680
ITEM: NUMBER OF ATOMS
50
ITEM: BOX BOUNDS xy xz yz pp pp pp
-4.686163796402778 9.8240737366694956 -4.686163796402778
0.0 8.7570279616805228 0.2179720532973963
0.0 15.605669338535611 0.3715063765027326
ITEM: ATOMS id type x y z
1 1 0.0602351877519466 1.8543932068235952 1.400939663323548
2 1 1.7368318150868682 0.9817468334207952 4.025087582440996
3 1 0.1791422126696829 2.0110412330736271 6.5748620026248502
4 1 1.7824020242054466 1.088979113596017 9.1178932130875232
5 1 0.1823889497472391 2.1190643550732005 11.8218141927296952
6 1 1.911100095779677 1.2119430348721236 14.2338935500719153
7 1 -1.4821475688399016 4.6529384396734894 1.3923378183841471
8 1 0.1918622651026096 3.7960918947387512 3.8391226237683358
9 1 -1.4203530789760615 4.78841763449433 6.5108693949352512
10 1 0.0793652790010746 3.9953909813507132 8.9945428815018698
11 1 -1.2978100436715585 4.92227026613135 11.6708699166196476
12 1 0.2803667067336341 4.0764412473292371 14.3147980216236874
13 1 -3.0697717611630799 7.4629779720030972 1.3239709415789565
14 1 -3.0050114389489182 7.6043503639806858 6.5599351799025412
15 1 -1.3423163377186145 6.6802702420262392 9.0019586955715418
16 1 -2.9296143866908726 7.6933761202640376 11.7194612892390442
17 1 -1.2902758877374792 6.9118745631098796 14.2515700917316757
18 1 3.1926036445850068 1.9241507500434984 1.3504303539424436
19 1 4.970558471573546 0.97995674778799 4.0238640979648537
20 1 3.3103285257430209 2.0219366671072594 6.3977579430026106
21 1 4.869939981534178 1.2096230418550693 9.1526142667988317
22 1 3.4795749235142482 2.1205217369563174 11.7628825036065834
23 1 5.0675457507294528 1.2463774824744249 14.1990975891477849
24 1 1.6533528340114972 4.6335887305682296 1.2956060769892339
25 1 3.3384307183726678 3.80154643000468 4.0109379220517463
26 1 1.8252764008197264 4.7771312635619942 6.5523867176434916
27 1 3.3881822298980833 3.875316023698972 8.9914716857760464
28 1 1.7698922898175204 4.920663287350834 11.7307738389425502
29 1 3.378822706885317 4.0942500955902004 14.3099587035618079
30 1 0.1213330997775359 7.5218180617708904 1.3671799188434941
31 1 1.681451627948575 6.6304344624550664 3.831875350927521
32 1 0.2535186330944928 7.6275653085650088 6.5208554627449802
33 1 1.7673916508806122 6.7707707443213964 9.1058612420275136
34 1 0.2912955436928939 7.7538489318545852 11.7535144203026648
35 1 1.8253456880615314 6.8465964576404136 14.3290569216983084
36 1 6.3588201391060535 1.9257998471553248 1.4138205827955755
37 1 8.1470238411019782 0.9948482461722132 3.9798186568237722
38 1 6.5953546504470886 2.0031993142947502 6.3788110998586945
39 1 8.1196703474890235 1.1180914001048357 9.0344575019690421
40 1 6.5486114111637166 2.1218878389830573 11.6622852379165156
41 1 8.2375832572201073 1.258260593527822 14.2434801127465818
42 1 4.8145697519300744 4.7143067262138062 1.2760833846467261
43 1 6.5187151428023206 3.8068184539562768 3.9953353738470772
44 1 4.9258833097180342 4.7656562961890058 6.3975301002302683
45 1 5.1202263975666993 4.8873034607675488 11.7229663225724804
46 1 6.6621366592538732 4.0538118947006314 14.2270457823661687
47 1 3.404261779637984 7.6242947637154348 6.4002735768999841
48 1 4.9907737182587866 6.7715728306276334 9.0630814206697856
49 1 3.445843647213168 7.725495518173224 11.6779455270977408
50 1 5.0180969680634684 6.8731595014367334 14.3334343119477677
ITEM: TIMESTEP energy, energy_weight, force_weight, nsims
3 -67611.3985601262356800 1 1 680
ITEM: NUMBER OF ATOMS
50
ITEM: BOX BOUNDS xy xz yz pp pp pp
-5.2650859547537321 9.7031527908387006 -4.9974924070879822
-0.4729704796366416 8.3172223682648365 -0.2675935476657497
0.0 15.3232285904452681 -0.4729704796366416
ITEM: ATOMS id type x y z
1 1 0.0390919061505034 1.8030986781683954 1.1279152747312131
2 1 1.4375055565119521 0.8902026556661602 3.7711369631572632
3 1 -0.1231876296957858 1.6339229373698846 6.3570896170493843
4 1 1.4699372549115466 0.6396729841084794 8.8104718264684082
5 1 -0.2761598774668309 1.544405038803882 11.4445394181345286
6 1 1.3992507103278536 0.4481506084525041 13.9080931866918878
7 1 -1.5943038474523362 4.5255165597356522 1.183271970337056
8 1 -1.843214300319118 4.4359382383243853 6.3483706999814205
9 1 -0.3219967226925757 3.502260997741101 8.9325473916799076
10 1 -1.7908325300563686 4.2364415506241073 11.5194929907846912
11 1 -0.2657485406381578 3.2075249942765831 13.9849606305929956
12 1 -1.8090452206364392 6.3075773537059616 3.7333268966103402
13 1 -3.3638482259871747 7.1669767620328271 6.2732868798882393
14 1 -1.9364454401301044 6.1373681009428127 8.8297009460265574
15 1 -3.6257585371829562 7.0417798175373596 11.6353917625513824
16 1 -1.9408001628336904 6.1186861758812325 13.9866492503836656
17 1 3.1389976607394559 1.8368688040601336 1.1329366967403025
18 1 4.8182271000196658 0.8313352383463752 3.8440188353019984
19 1 3.1399566520239377 1.623633125532973 6.4831078489772064
20 1 4.7472733922541838 0.5977289925400692 8.8430842538774534
21 1 2.9494929139597686 1.4754759929111998 11.6034152491288404
22 1 4.526492527110941 0.4457805968365552 14.0106638142306128
23 1 1.4767762684031994 4.6614996352646054 1.3332863782375151
24 1 3.0914219994855823 3.623371145300105 3.84805803835844
25 1 1.466017012294852 4.3997737865496998 6.2420795925409385
26 1 2.97943750911634 3.47657600514352 8.9535570704002688
27 1 1.287149727053907 4.2992861698479974 11.3631623480592481
28 1 2.9920784251318132 3.2673403089470306 14.0067487293257518
29 1 -0.0937083265530898 7.3903742336526088 1.3055666577173995
30 1 1.3888812641813435 6.2945915351607997 3.7213134853954308
31 1 1.3724213646767145 6.161175243670332 8.8220776398028118
32 1 -0.2402807455745096 6.9976594979010454 11.4482231222876685
33 1 1.2597495165772921 6.0667751842985398 14.0091452822773004
34 1 7.9910109239373756 0.7898305204552092 3.8657410441518142
35 1 6.4083106880498742 1.6340096144228112 6.3997663409966332
36 1 7.8222461003621754 0.6909885160116588 8.9329166814889386
37 1 6.2328386499029227 1.54365285090313 11.6120728732824396
38 1 7.8668981199621566 0.4059425336877367 14.1282098330707768
39 1 4.7264469025312038 4.5756134905802074 1.1621795461823079
40 1 6.3024711487614704 3.6386628788305582 3.8982416119921482
41 1 4.5797759393535058 4.4645909857874848 6.2811430991865605
42 1 6.2605152201687897 3.3740470863285883 8.9999588712178546
43 1 4.5484604059061492 4.2512011370599092 11.5958900115680716
44 1 6.1107010112370146 3.1936476760943209 13.9742910665254704
45 1 3.0976212418642675 7.3475628543626073 1.4077235580841801
46 1 4.5937430488650692 6.4289718128024829 3.6890672831496986
47 1 2.9986599796676358 7.1840198847805725 6.4596357274223628
48 1 4.5313556856611036 6.2434332805831865 9.0622784418951952
49 1 2.8663007947114064 7.1099383713223565 11.6200945834495394
50 1 4.5653622039305768 6.0486916797112862 13.9593555156183644
ITEM: TIMESTEP energy, energy_weight, force_weight, nsims
4 -67612.1361911607550600 1 1 680
ITEM: NUMBER OF ATOMS
50
ITEM: BOX BOUNDS xy xz yz pp pp pp
-5.1000353257815663 9.7031527908387006 -4.9388271453145718
-0.2826043250331772 8.3521925309230181 -0.1612081804669942
0.0 15.3913738324953276 -0.2826043250331772
ITEM: ATOMS id type x y z
1 1 1.5743961707227324 0.8089113925902378 3.8537245020652282
2 1 -0.0632674291950156 1.771316744221898 6.451980797163345
3 1 -0.1729204389768893 1.6571832415736084 11.3941386216785272
4 1 1.3966394221765277 0.6644957626288812 14.2577683669843794
5 1 -1.5970822169142718 4.6299355815173548 1.1617485925636637
6 1 0.0302608982071628 3.5731243516903652 3.8804870228851702
7 1 -1.8045545664770518 4.5654707077201736 6.463501240476969
8 1 -0.1253091482136606 3.5108063495713374 8.95186774382322
9 1 -1.9051591156353084 4.4857104014526916 11.4450655994154893
10 1 -0.0567610854033172 3.3799479521295792 14.0555795846338061
11 1 -3.4103561334488957 7.4469036785488685 1.2537766949829197
12 1 -1.783957315811349 6.4823899331147334 3.7234719227329706
13 1 -3.319659690179734 7.2956413621220842 6.3480459279472719
14 1 -1.7009712871560232 6.3136456493412254 8.8936606462634896
15 1 -3.3466085353447981 7.2065068515881281 11.6471020071651222
16 1 -1.8716899245536146 6.2378725324039097 14.2285401480764726
17 1 3.176859418355658 1.9055222952234784 1.2292028275219576
18 1 4.7830358759117902 0.8800759869454934 3.8940868408035638
19 1 4.6763251936205918 0.7291310945687188 8.8862327692519258
20 1 4.7572287114782626 0.5975029050347982 14.0530215383028434
21 1 1.6708426047957716 4.5740619055277758 1.363398676830101
22 1 3.254906888598367 3.6077626393426296 3.8216211745254092
23 1 1.6229402633691684 4.4695286703361018 6.3014485436693919
24 1 3.1341440927738664 3.5684648337453774 8.838103943277714
25 1 1.4672486594772208 4.3588992790949544 11.4661148422688104
26 1 3.1838334893886571 3.3762458882664999 14.0450010933987315
27 1 -0.1604931794112447 7.4494595719957149 1.2281146573920003
28 1 1.5203807034716326 6.3829582281592545 3.7092626064108104
29 1 -0.1485369544356382 7.2353032476233592 6.4858864545789494
30 1 1.4813409212140918 6.3597116827942815 8.9843450817471666
31 1 -0.1955692597058487 7.2229142468750176 11.549465288121306
32 1 1.3691035173736388 6.2100770091580815 14.2513440075466953
33 1 6.4911646086331488 1.7563066956767128 1.1610344328178359
34 1 7.9712549694832174 0.8524424509501506 3.7908907575314498
35 1 6.4033928461246292 1.6898134618926234 6.4566705487701084
36 1 7.9319201262395502 0.7252219677286106 8.9321467765316438
37 1 6.2685636589384526 1.6247948368166034 11.4103472774615309
38 1 7.9124936024332194 0.7123657314307098 13.9992471564068736
39 1 4.6965070720981076 4.6879920854257984 1.2438323283497444
40 1 6.2919882028010443 3.6505084170720856 3.987056895301369
41 1 4.6670013632417514 4.4814165494113692 6.2852891402826554
42 1 6.2188732798910849 3.6222971284624368 8.8646740719247498
43 1 4.7219771473463812 4.3670624587011018 11.5627911395854818
44 1 6.3030608431837001 3.4471965814001942 13.9920716979261658
45 1 3.039106192053104 7.4166675957794572 1.2747181982194129
46 1 4.7240510649426578 6.4259854766632954 3.808239914115438
47 1 3.0557971161775437 7.3076238813822841 6.3492033592594748
48 1 4.5711752255533442 6.3832491415744439 9.0091282718922514
49 1 3.0576053398511873 7.1621253926619337 11.4370143717637127
50 1 4.588978061852651 6.1735128646983402 14.1458977054202713
ITEM: TIMESTEP energy, energy_weight, force_weight, nsims
5 -67611.7678055807118650 1 1 680
ITEM: NUMBER OF ATOMS
50
ITEM: BOX BOUNDS xy xz yz pp pp pp
-5.0171898072533851 9.7031527908387006 -4.9095042175806576
-0.1880179916280815 8.3694641428907115 -0.1076855896727279
0.0 15.4242675204562705 -0.1880179916280815
ITEM: ATOMS id type x y z
1 1 -0.0286506216566039 1.8548141226805288 1.4123801253004043
2 1 1.5210742119818506 0.8833188597548682 3.780430899474006
3 1 -0.0877715261183696 1.7139269272814004 6.377982434937981
4 1 1.4735870901147826 0.858996745398066 8.9639426333603342
5 1 -0.0039711117134645 1.6989563377500706 11.6203778525103996
6 1 1.5369792117007546 0.8302010960165592 14.0335523213150992
7 1 -1.760869550099447 4.6820872621299002 1.2335604222287464
8 1 -0.1905939333207216 3.7517379064177616 3.7092741261218856
9 1 -1.6173295446244776 4.5054267173448856 6.56681557248392
10 1 -1.6320352769913492 4.4670591283713278 11.6510320417805566
11 1 -0.1966648050450515 3.510189505188103 14.2302117322009156
12 1 -3.2927206699808407 7.3822989500036203 1.3603124254315997
13 1 -3.4639360917295964 7.4399053465676977 6.5621019163296674
14 1 -1.7757922955510792 6.3467155879184816 9.0744050676348316
15 1 -3.4308909766398284 7.3410012734970556 11.4186546545976207
16 1 -1.8082785330767448 6.3601974698550281 14.1685933258834478
17 1 3.2127015674069131 1.8315190109127884 1.355080513888661
18 1 4.8733555464411848 0.835173995194888 3.818772543676357
19 1 3.0909548693646607 1.7847169800796252 6.4376928593631711
20 1 4.8680507738715432 0.831204719943785 9.1221663120119274
21 1 3.1965160237925385 1.6664549966489944 11.5079981817831084
22 1 1.5461655363124816 4.627905473881044 1.2449898044614045
23 1 3.2419401698313384 3.729336728723741 3.9282555369633072
24 1 3.0785723930259588 3.5766938346399654 9.0862385656765277
25 1 1.4769224370985504 4.4645783442890936 11.5105601526182594
26 1 3.1965348875929065 3.5021448150015564 14.0802554609402879
27 1 0.02881949137083 7.3758131723693179 1.2615338738038455
28 1 1.565988444653649 6.3842391197124089 3.873500929692439
29 1 -0.133212863578402 7.3583785108218329 6.429235733481705
30 1 1.4613759166043834 6.3366278443267374 9.1397715709597769
31 1 -0.1489826302472721 7.2636550164065206 11.4780334572711206
32 1 1.3967679526747987 6.3112476215288922 14.0854626936551952
33 1 6.4737559621707668 1.768769413451284 1.4009075551186887
34 1 8.1147999882104554 0.9038781697745 3.972769973027344
35 1 6.5019898389477416 1.7420086793436976 6.4747496620810684
36 1 7.9159778402949828 0.8961791125729246 9.1475238078155563
37 1 6.457796275785471 1.6624266002887924 11.5990553450901236
38 1 8.0863219345219086 0.7339341224792122 14.1073389322794576
39 1 4.789986108169149 4.6663778012591042 1.2759216305469274
40 1 6.3751904804741262 3.6884294960374704 3.8772937570757202
41 1 4.7272134933000088 4.5802183933788028 6.436048632445492
42 1 6.4137661939865005 3.62506591479473 9.1396620586603792
43 1 4.6996295264351238 4.5456960410696468 11.6933315530286564
44 1 6.2342759088355004 3.5828699738099142 14.2434596355742365
45 1 3.2149063444871229 7.5060069558819428 1.2900903626912186
46 1 4.6655903080944006 6.5103080304232446 3.922344957649468
47 1 3.1068778617174102 7.3959360995642536 6.4351031248464867
48 1 4.6752911910674602 6.4368743631678873 8.8543177368121952
49 1 3.1327954179305189 7.2277667482933392 11.7067398687841884
50 1 4.8049248288760112 6.2995482966201291 14.0081917406579688
ITEM: TIMESTEP energy, energy_weight, force_weight, nsims
6 -67611.5878613459017300 1 1 680
ITEM: NUMBER OF ATOMS
50
ITEM: BOX BOUNDS xy xz yz pp pp pp
-4.8508389558072462 9.7031527908387006 -4.8508389558072462
0.0 8.4035998344088832 0.0
0.0 15.4877455460139366 0.0
ITEM: ATOMS id type x y z
1 1 0.0538317587808806 1.7982190997664816 1.3000847268199385
2 1 1.6755032233771432 0.8919026226652518 3.7985771309502342
3 1 1.6910409782584888 0.9040575894657408 9.0041849692647418
4 1 0.0532396897080082 1.9178359398094576 11.7163044940348726
5 1 1.6291646587379126 0.922930393973856 14.2969408029921166
6 1 -1.599575815108162 4.6837194761883208 1.3328536988461948
7 1 -0.0306474856568673 3.7973220517745898 3.7775726504407304
8 1 -1.599501949834254 4.5855855987620266 6.4554580624559508
9 1 -0.049408668015926 3.7791812008120514 9.1508786999783673
10 1 -1.4928649391148652 4.6114821320117416 11.5745343176303238
11 1 0.0192813783705417 3.7235787825076856 14.0617469966794584
12 1 -3.2485981722147495 7.507001280156163 1.2921271231583966
13 1 -1.605486251836111 6.4887917116197632 3.929166703845115
14 1 -3.2765140563971205 7.463756355408295 6.5816289815465528
15 1 -1.5053859433740862 6.5016551018862918 9.0607524110970044
16 1 -3.1871785836046982 7.4692909662592362 11.6719754687330718
17 1 -1.5081186630010982 6.4815158748831312 14.2096859421349837
18 1 3.3622906388564924 1.8049008019948202 1.1489072937707421
19 1 4.8443015868540176 0.9579465137638712 3.889330673526212
20 1 3.1869034019858433 1.8177902434208364 6.4684894515583676
21 1 4.749584588934316 1.0114429899497346 9.0635293638734034
22 1 1.6840461183157266 4.6707199476044732 1.4200140844554976
23 1 1.5960990853092712 4.7140161343113318 6.3213047593109329
24 1 3.2114407174179607 3.791332806172607 9.1287869797315366
25 1 1.5606176922635152 4.6546337768014486 11.7011481862435432
26 1 3.250886113080782 3.7984447727124668 14.1924713129605884
27 1 0.0558732026940444 7.4308150844173957 1.3394421858014691
28 1 1.6563055075073068 6.4921397057937904 3.7829499956943066
29 1 0.0632089915730883 7.5271430282392738 6.5081829946182462
30 1 1.576644861798171 6.4955364408468582 8.9315830644686934
31 1 0.0516394835144139 7.4336815523209117 11.7098910186042674
32 1 1.65955815144588 6.6043899502219246 14.3271434555813997
33 1 6.371753199597813 1.9501057631735876 1.2301962750435509
34 1 8.0616943553498821 0.9581650073595656 4.0139249401202308
35 1 6.5408196842766576 1.8916368769657048 6.4323689313959536
36 1 7.9549828478094212 1.0176767803068991 8.9960368663329842
37 1 6.3747797673498426 1.918693106992567 11.5713670736661634
38 1 8.0152488464302092 0.9591608339399432 14.2282650416919818
39 1 4.914821134754117 4.689174252840835 1.3738156882662927
40 1 6.4473887245487092 3.77934927280874 3.8969289614910864
41 1 4.8795843928459988 4.603649136606089 6.4270117202115866
42 1 6.5914517098949252 3.6553331482524506 9.1685254372534981
43 1 4.7459940226550988 4.7111059676886748 11.4804710438311624
44 1 6.5548107242295446 3.6891878905453504 14.0510418669580552
45 1 3.2664508713395435 7.4244737279823499 1.2633075262463738
46 1 4.8248525174519728 6.5742924574149884 3.8947389942708802
47 1 3.317647879842681 7.4551191354984888 6.4971402320439378
48 1 4.7836610375503836 6.4952860135717936 9.1036240395429235
49 1 3.2981445856326741 7.4279645833535648 11.7410244847008656
50 1 4.8422180760785444 6.5225523335945166 14.3469135627708848
ITEM: TIMESTEP energy, energy_weight, force_weight, nsims
7 -67611.9002554949474900 1 1 680
ITEM: NUMBER OF ATOMS
50
ITEM: BOX BOUNDS xy xz yz pp pp pp
-4.8215063249205406 9.757315789717163 -4.8215063249205406
0.0 8.5138955721823458 0.0541629988784616
0.0 15.518339586763453 0.0934316582229859
ITEM: ATOMS id type x y z
1 1 -0.0280307917170793 1.821943469746207 1.3172013196263579
2 1 1.6642329598305644 0.9852135001729292 3.9382364611590352
3 1 0.0170022232368184 1.942524241888986 6.3956788186020122
4 1 1.6867588955583418 0.9694186347128998 9.2015513511186704
5 1 -0.0489297199099829 1.9986238661067224 11.6085994525875886
6 1 1.6892131424288178 0.9879654973107246 14.2108356775448623
7 1 -1.5872685593671348 4.674184554384211 1.4202896495012274
8 1 0.0012602788458541 3.690529711933504 3.9756635925743922
9 1 -1.6644084084453952 4.735231972134808 6.3829925759898325
10 1 0.1054130855146287 3.813892950034671 9.1083233742172318
11 1 -0.0199343806861599 3.8123442880356722 14.2473813672716912
12 1 -3.1262133333260138 7.460207882986528 1.1976371686122216
13 1 -1.5318366042103098 6.5696115326916066 3.9378593655070774
14 1 -3.2287030883620092 7.4995649602120658 6.5206030041094154
15 1 -1.6677589269411974 6.6592899653881902 9.026952960594036
16 1 -3.1753198775114338 7.5543797519993596 11.749349240805577
17 1 -1.4457456514189549 6.5988356113049732 14.2076326922541512
18 1 3.3445455472226362 1.8077404917990202 1.4346518727887772
19 1 4.8738812661247338 0.9530958900045864 3.940008655539844
20 1 4.8074756588092288 1.0442094498239114 9.1259304823123717
21 1 3.204357172945723 1.9978426632854152 11.637725824157986
22 1 4.9605326542388948 1.0590559044472845 14.0955592437585473
23 1 1.5348479110279902 4.7076202921350206 1.2219311292352997
24 1 3.3224191442981539 3.7658514144487022 3.8476621203269322
25 1 1.5320117586100238 4.7841310885900424 6.5962424949232182
26 1 3.2820024710218134 3.781296140124642 8.9953995207122688
27 1 3.3478695825105485 3.809844944452674 14.1877769767528896
28 1 0.0793787098808746 7.4251272634182923 1.4286617937082862
29 1 1.5744683456763742 6.6004107875580696 3.8281648784701226
30 1 0.140210684089895 7.5278767463885742 6.5760702052943848
31 1 1.7176308551511828 6.5945748437320892 8.9990401231793254
32 1 0.1691448183759018 7.5038274890401144 11.7817949852135798
33 1 1.6719855901831528 6.6625433511027144 14.3103206489676858
34 1 6.5915282148086974 1.8337453188087366 1.396175701617356
35 1 8.2048277052737913 0.9271241550783444 3.9278981433263338
36 1 6.561559610420229 1.88439453899788 6.4804539559305416
37 1 8.0185411540677354 1.0695648607683499 8.940290793171755
38 1 6.462756696430831 1.9967836763238306 11.6176373335629198
39 1 8.2394187002154027 0.957750039099074 14.3546984446839528
40 1 4.833895719091947 4.6742331925398518 1.3769003720166369
41 1 6.618132923261526 3.7110941753548312 3.8365059859980072
42 1 4.976226168181845 4.6670557216533926 6.4968428743681228
43 1 6.4361508530089538 3.763048942938394 9.0353902818273593
44 1 4.9498025049613056 4.786694672143522 11.7454587930711742
45 1 6.5641197804423994 3.8139748885150904 14.3580752353780312
46 1 3.2855531683105333 7.467734311349255 1.4369703127230398
47 1 4.9295713304592424 6.5842998734844934 3.8116549169837648
48 1 3.3279210075207533 7.5614055334943586 6.5877089599844574
49 1 4.9794970201914248 6.6450977598453314 9.1912269997915956
50 1 4.9611754713587936 6.5780349130550314 14.1829399103036966
ITEM: TIMESTEP energy, energy_weight, force_weight, nsims
8 -67611.9586438259148050 1 1 680
ITEM: NUMBER OF ATOMS
50
ITEM: BOX BOUNDS xy xz yz pp pp pp
-4.7921736940338358 9.8117019611098134 -4.7921736940338358
0.0 8.6236867460106854 0.1085491702711126
0.0 15.5481961879008638 0.1864945966399198
ITEM: ATOMS id type x y z
1 1 0.063232579412582 1.8935868276767272 1.4169553180115879
2 1 1.603771014411046 0.9626476080525364 3.8938467183485664
3 1 0.0636010345981323 2.0038799755079353 6.5644468757121262
4 1 1.7801792489417192 0.9796128312145184 9.1683110653979778
5 1 0.1133529025257045 1.9999503971376564 11.709896955253191
6 1 1.652845534625377 1.1334654624356344 14.1910827673772673
7 1 0.0862240423916497 3.8727504241573088 3.8061020279817664
8 1 -1.61058312583396 4.8379427560470134 6.5875032958391646
9 1 0.0075258350615102 3.8958655103126696 9.0643169551952045
10 1 -1.5180608518596318 4.8334895267218556 11.746694871171096
11 1 0.0928341224831 3.9152113066269818 14.277902340070888
12 1 -3.2295130492070792 7.4976523627221274 1.1633595737280687
13 1 -1.502302966780919 6.5761760079203056 3.781683585868668
14 1 -1.5156975784001936 6.6034293644096112 9.0729446492598687
15 1 -3.0194456056241616 7.6315509058141534 11.7559724798364158
16 1 -1.3322758960180732 6.6519530611598744 14.2134084222834716
17 1 3.186321001901931 1.8702011193577298 1.2760326870429295
18 1 4.8181329630412062 0.9356376018952352 4.0416323231145634
19 1 3.3289640285925906 1.9315973151092616 6.5372624094971998
20 1 5.0038281936998565 0.9910046116381124 9.1625333556945528
21 1 3.3374384041355527 2.0102684368685182 11.5979297300452622
22 1 5.0136163837302066 1.1105596345432238 14.3784276477041395
23 1 3.3159619103682565 3.7564982781284666 3.8836642046651098
24 1 1.6496144202188142 4.7021272043399822 6.4787234508497528
25 1 3.2376419474434237 3.923670845534089 8.9690516023323142
26 1 1.6652728391399068 4.8405426980863712 11.8051218828059898
27 1 3.3260409731265357 3.9812337442410798 14.2279366568014485
28 1 -0.0182090941006674 7.5881385353712388 1.3147896756805104
29 1 1.6194296138981098 6.6342908309829438 4.0043384197382643
30 1 0.070897378930721 7.6078333996758786 6.6046762785287002
31 1 1.6960078809126506 6.5948020629723496 9.1925025038467307
32 1 0.1731386597684434 7.6489805650923702 11.6299294726195798
33 1 1.7923302802909252 6.7736174691823026 14.3996105101905379
34 1 6.4447761332329137 1.915750287984806 1.217168771095156
35 1 8.1606789787329728 0.9520195161643712 3.7914494078942886
36 1 6.4541155165382308 1.9596346987233488 6.3905092049580788