ITEM: TIMESTEP energy, energy_weight, force_weight, nsims
0 -74358.6181927675681870 1 1 544
ITEM: NUMBER OF ATOMS
55
ITEM: BOX BOUNDS xy xz yz pp pp pp
-5.165145326566666 9.5091034936303984 -4.897549645152413
-0.4729732986696824 8.1508897143246877 -0.2675956814142531
0.0 15.3232546427408316 -0.4729732986696824
ITEM: ATOMS id type x y z
1 1 -0.0814913621414989 1.7342733820201446 1.1995779250560377
2 1 1.4961388843900132 0.8055312841508872 3.7625500935772616
3 1 -0.1718669288522553 1.6247453197089818 6.3687415018183371
4 1 1.4301034299766362 0.6086636160643418 8.9135050468475932
5 1 -0.1975277038120628 1.4727177391705624 11.470301943747792
6 1 1.2724216629023451 0.476249413901345 14.0451465699662119
7 1 -1.684125311535416 4.4753885404026762 1.1906429352738557
8 1 -0.0867057765114927 3.5201647130077296 3.8720868470654306
9 1 -1.7657791897851646 4.3016313681861487 6.3540265803849128
10 1 -0.2024914436203435 3.3725196517332021 8.870138703883173
11 1 -1.8948305952350578 4.1811627207114439 11.5330813180191002
12 1 -0.253238517873044 3.1838449016975532 14.1199730870376445
13 1 -3.3189598168335293 7.2483352123783052 1.2549132622219031
14 1 -1.7984394934844098 6.2129355636596158 3.8097487825278318
15 1 -3.4401379948974671 7.0628554766624081 6.4373084693682099
16 1 -1.8606808667989392 6.0941560849049079 8.9130055087462398
17 1 -3.5467292376252436 6.8847355933368304 11.5295630987531298
18 1 -1.914047214160715 5.9077310027035858 13.9862026063319806
19 1 3.1308675209801384 1.796764860854518 1.2568470569578172
20 1 4.7115716672491006 0.738478315100709 3.8552282023074872
21 1 3.0753950381519948 1.5776549034267198 6.4014689090843025
22 1 4.5671436275073214 0.6368179571950032 9.0155303409098888
23 1 2.9287968579032854 1.4684561935070048 11.5011537846454886
24 1 4.4744327249211082 0.4773220417272876 14.1085771825598378
25 1 1.4783039510963246 4.5037794364199978 1.2036707663711137
26 1 3.0731041206606613 3.5329087302776614 3.91692269015009
27 1 1.4170309754941988 4.3411554759373665 6.3708070765441782
28 1 2.917310124179596 3.3216805494181365 8.9589047857031066
29 1 1.274703911678126 4.1953633067915872 11.4030497114462684
30 1 2.7962198745239394 3.2127083143588196 14.0594385695714959
31 1 -0.081709276861288 7.1579891638798658 1.2933868899788968
32 1 1.3797395527520824 6.2001887181074924 3.837808726429619
33 1 -0.2823010385856776 7.0548865560090732 6.3249399784220622
34 1 1.2588307386035198 6.1109815047620559 8.8857684236187674
35 1 -0.3191610765953342 6.8470346003789766 11.4816564754380632
36 1 1.1592356497772962 5.9360757162269246 14.1215651731950231
37 1 6.3292052054970016 1.7302083546102744 1.2083244388061139
38 1 7.82697050378534 0.826210122486081 3.818426341632017
39 1 6.2382077219176795 1.5944827551980986 6.4106475386153044
40 1 7.7855529837078592 0.6243806229152294 9.0225775057200863
41 1 6.0854990481957367 1.4562731065683272 11.4418420628998305
42 1 7.641738442625016 0.4682380868446966 14.1263950630584159
43 1 4.6509109304989886 4.483600887486162 1.2504971002338652
44 1 6.1709631028136105 3.5354069316353388 3.90187218943999
45 1 4.6066659343389374 4.3194189400186742 6.2997638710440391
46 1 6.1094861377093839 3.3698475437153857 8.8768012550018352
47 1 4.4128420729103804 4.2114880850696031 11.5630275545674088
48 1 5.9799802914817902 3.1842424696065428 14.1201906772535715
49 1 3.0412358955988172 7.2272781922435687 1.289295580989285
50 1 4.5780687892397172 6.2426343091666388 3.8627687759171798
51 1 2.9646196845223502 7.0181294871192987 6.3421250085038956
52 1 4.4856309412896724 6.0464870218683124 8.917818543029524
53 1 2.8481694348502402 6.8831589787304638 11.5665932759227754
54 1 4.456279747995307 5.8671914339395936 14.1007132882771842
55 1 1.5814142412406034 0.8441335208980174 1.1873760173840229
ITEM: TIMESTEP energy, energy_weight, force_weight, nsims
1 -74362.4789367111918640 1 1 544
ITEM: NUMBER OF ATOMS
55
ITEM: BOX BOUNDS xy xz yz pp pp pp
-4.6388449755047044 9.7270711639113952 -4.6388449755047044
0.0 8.672349931708391 0.217967670280996
0.0 15.6057225620191248 0.3715016552891524
ITEM: ATOMS id type x y z
1 1 0.1027903052819393 1.8514976167137226 1.3080264085530131
2 1 1.6457014180585414 0.9678185036667544 3.9507213152169184
3 1 0.0694150128793128 1.9822667274635668 6.483601873356407
4 1 1.6787141448831888 1.1846810386182085 9.0319196122542458
5 1 0.2039151613934767 2.0879385675242053 11.7288959037056238
6 1 1.8343796876492192 1.2878359446735111 14.2570541701978435
7 1 -1.5295897131027062 4.6166700468192454 1.2496407187317309
8 1 0.1185928891461614 3.751776796607552 3.9463922877782144
9 1 -1.4427525550203602 4.7801118449433862 6.569285093083173
10 1 0.1750400798469603 3.891123556686547 9.0743172393107408
11 1 -1.4181514237457922 4.935458312311047 11.6302880245529946
12 1 0.2222816352522206 4.0669855115102385 14.3706170132816578
13 1 -3.0587940155958533 7.3645250564684091 1.3534250160581829
14 1 -1.478083888672291 6.5858631724119796 3.965638825413953
15 1 -2.9423723395483118 7.5256893957148012 6.5452850523550446
16 1 -1.3363831591331692 6.6872843445302426 9.1090524565892821
17 1 -2.8542820928417122 7.6169566107620232 11.6648328520162768
18 1 -1.2328463394449214 6.7570963341565982 14.3098452084806436
19 1 3.2524451692758447 1.8291448153131412 1.2508985399702297
20 1 4.7931553102220504 1.0529222279459931 3.8327623400873838
21 1 3.2424050967846459 1.9929117323226028 6.4632379659852282
22 1 4.9588217047178756 1.1083663591814286 9.1839505614534378
23 1 3.3529903429718617 2.0774128465615229 11.7189129229826978
24 1 4.9977828518035094 1.2278077676183244 14.2666532501457422
25 1 1.6506619795840086 4.6473350584951502 1.2328692486943291
26 1 3.2751471616813231 3.801219939595697 3.8100513320428778
27 1 1.7658669272915362 4.7642510379329694 6.4122868423924935
28 1 3.398771036128708 3.882782232770373 9.1491903750187937
29 1 1.7969760489067652 4.8879397391548496 11.728674302445242
30 1 3.4148639843364115 4.0745425378135867 14.3025838657725366
31 1 0.0837052758788663 7.4236608677167118 1.2884521507434728
32 1 1.74530641982467 6.5888341539270226 3.9920046936824832
33 1 0.171962412570375 7.4889810460131026 6.4761595042665814
34 1 1.7864463027006356 6.6790120411732614 9.1188294417743858
35 1 0.2164188821014222 7.6911022587015276 11.7077563919231126
36 1 1.8050224492294824 6.8373924764956282 14.2366699753873345
37 1 6.435266999835557 1.8668191811095136 1.2172900558606654
38 1 7.9488113359226072 1.0509467728073472 3.8275032115839842
39 1 6.457313513031627 2.0118618477206645 6.576359167120537
40 1 8.0179522871982858 1.1423249465393721 9.0588660134020849
41 1 6.4758739404551654 2.1313326153843226 11.6897598726645918
42 1 8.1981245815989983 1.2540111718447513 14.3215775907027698
43 1 4.847655059103869 4.6240260139886172 1.2558720837507451
44 1 6.4310846495518082 3.8095198669506264 3.9906017392241586
45 1 4.9711752053025214 4.7318083215217976 6.4169030151263371
46 1 6.4878424551296376 3.9565110301248128 9.1377810312537022
47 1 4.9945263831594104 4.9211422636410074 11.7331359785257234
48 1 6.5357815679589796 4.0355548982134746 14.2335332251523692
49 1 3.2882632650407984 7.3593983757355313 1.2418394180229777
50 1 4.9235055529297274 6.564738798827447 3.9615782164033142
51 1 3.3222308877976881 7.5060577666007236 6.4887564435186428
52 1 4.914485725879703 6.6859080075379184 9.0249797474309155
53 1 3.4640786202869634 7.616721282602013 11.6750670848724508
54 1 5.0220893124914356 6.7506660925368456 14.270390820699344
55 1 1.6239003689974588 0.9038867349768958 1.2129657101387297
ITEM: TIMESTEP energy, energy_weight, force_weight, nsims
2 -74366.0706342451533130 1 1 544
ITEM: NUMBER OF ATOMS
55
ITEM: BOX BOUNDS xy xz yz pp pp pp
-4.686163796402778 9.8240737366694956 -4.686163796402778
0.0 8.7570279616805228 0.2179720532973963
0.0 15.605669338535611 0.3715063765027326
ITEM: ATOMS id type x y z
1 1 0.0449101072968262 1.9308213650498464 1.3240442882248471
2 1 1.6247924984820418 1.0196110034549686 3.80099641300736
3 1 0.1340163824143982 2.0436551377642163 6.4323120160519967
4 1 1.7647842539610824 1.1689917000126267 9.1229494499532073
5 1 0.1491393039860018 2.1053276728703811 11.795345416964608
6 1 1.7723051996292756 1.2584932916062781 14.3050351148855004
7 1 -1.6196516169624222 4.7564879358956018 1.3443285372310761
8 1 0.0578654671337823 3.874827149668549 3.9214877859701938
9 1 -1.5244161265872068 4.8706798805106298 6.4779461143317426
10 1 0.1069158081485341 3.932135837254478 8.982821463261697
11 1 -1.4050970721211236 4.8797468063039462 11.659014289623162
12 1 0.3124166978550036 4.0449931214944543 14.1919033755827204
13 1 -2.9868361981379348 7.4229491399897683 1.3775951425600326
14 1 -1.351353329280457 6.5538808172748918 3.8935661223896858
15 1 -3.0155651776555987 7.5722297925689822 6.542717444921335
16 1 -1.3737602702508198 6.6821951470320124 9.1319554817284807
17 1 -2.8368513568992856 7.6856478816774888 11.754750389314273
18 1 -1.2644448544983382 6.8268995263510464 14.224291381727916
19 1 3.2698059061436755 1.9465794798013644 1.3438775333871926
20 1 4.7939979114142046 1.0232190649705391 3.8017969838444272
21 1 3.3220365929619833 2.0122164891210748 6.4783300137974714
22 1 4.9268818312273712 1.1856106035994594 9.0648136499663643
23 1 3.3262345246076772 2.1813522791645275 11.8049881600488896
24 1 5.0043711168939939 1.2917932448937875 14.2381523372344035
25 1 1.6274229886554158 4.7106887770292234 1.296319256078005
26 1 3.3353203706960635 3.7759497413893812 3.8307689089714176
27 1 1.6766045594033586 4.8307726086824268 6.503706392708863
28 1 3.380275615598809 3.8926466697225114 9.1262531701521752
29 1 1.7776542693549666 4.9666199846642706 11.6487644860016104
30 1 3.5418301261550522 4.0076186757863219 14.1952070957816883
31 1 0.182233201820859 7.5049973765965162 1.3172948362359309
32 1 1.7258049589376866 6.6677558217502116 4.0022533670648501
33 1 0.2234457823143308 7.6266386591486244 6.4453318259811372
34 1 1.8151295507341786 6.7276033582014688 9.2280739203183888
35 1 0.2893612916735275 7.76812003008469 11.6443792929174848
36 1 1.9410134550664694 6.8621647504624638 14.1912822699430432
37 1 6.4666487059184484 1.9386197543697198 1.2927939353744302
38 1 7.9777322459095572 1.0868681733005652 3.9000939738739948
39 1 6.5161391471110442 2.0163075840304443 6.6183393974020106
40 1 8.1336945181942948 1.2011516258736563 8.9944757771237142
41 1 6.5438214717017464 2.1500513933412768 11.7235031575977242
42 1 8.2513907250465675 1.2692279738461725 14.3892729574079823
43 1 4.938994919746964 4.7234250172103378 1.1863258168792048
44 1 6.4464653365196867 3.8519685261505582 3.8992387831942432
45 1 4.8741834716098938 4.8423311515742462 6.4288163461201649
46 1 6.6699837797396936 3.9195070471592798 9.1183223689943311
47 1 4.990158607664216 4.947827691640783 11.7077866880068858
48 1 6.7056147843118596 4.0512690889744318 14.4194293528377689
49 1 3.2654827810440845 7.5420719531384632 1.2194270021131726
50 1 4.955200755437903 6.61955365253354 3.795991674850491
51 1 3.3857010121692986 7.6656734469307724 6.509976750649087
52 1 5.0081810217028613 6.7010610823848866 9.1402764246197847
53 1 3.4284506283112668 7.6768145183436714 11.6397397274231338
54 1 5.1306586003330921 6.813057715887827 14.2439186320549922
55 1 1.736402977876891 0.913009803721538 1.3071183792602721
ITEM: TIMESTEP energy, energy_weight, force_weight, nsims
3 -74361.98577409955760 1 1 544
ITEM: NUMBER OF ATOMS
55
ITEM: BOX BOUNDS xy xz yz pp pp pp
-5.2650859547537321 9.7031527908387006 -4.9974924070879822
-0.4729704796366416 8.3172223682648365 -0.2675935476657497
0.0 15.3232285904452681 -0.4729704796366416
ITEM: ATOMS id type x y z
1 1 -0.0220894153172264 1.8809178987814064 1.304547663016135
2 1 1.4976915501171 0.7577568162401206 3.701046983261708
3 1 -0.171936771094159 1.6140791975201716 6.5044469771122612
4 1 1.4592434984457102 0.6063090217655574 9.0344284739320617
5 1 -0.1519427517404926 1.4250208736366641 11.5446843785873822
6 1 1.3254284587964263 0.433535692584076 14.0628945712040032
7 1 -1.7139154814394578 4.5741205654013886 1.130140207522546
8 1 -0.028479566761319 3.5158522804810258 3.7673429317582698
9 1 -1.7146403354530334 4.3671115327786456 6.4039342591732345
10 1 -0.2253168043552882 3.4901042668133138 8.9612539281212484
11 1 -1.7944391556725158 4.2459908834178091 11.3877162895525803
12 1 -0.313287275063384 3.314429260282028 14.0040487764481156
13 1 -3.2964494613917532 7.322608167066119 1.3533904541481794
14 1 -1.7061569597235318 6.3477739653658496 3.7089307843714918
15 1 -3.4290917562228023 7.2264941240767042 6.2722311094383576
16 1 -1.9004869484216452 6.211305526845651 9.0574546895349233
17 1 -3.5535085136424028 7.0887275448968747 11.5886834971619876
18 1 -2.0291094517221304 6.1138396428896567 14.0546368833166113
19 1 3.0715348545884726 1.8833585335558508 1.2759192750406061
20 1 4.8334950064648378 0.798703446010844 3.6888098529093782
21 1 3.1193818419871828 1.7217801745399236 6.5312442392712304
22 1 4.7359601868964828 0.6121278146596212 8.9124417834463862
23 1 3.0385060654103508 1.4913028017081476 11.4649407646798488
24 1 4.6775398489290066 0.4553337813685614 14.1816894331742898
25 1 1.4966615599806608 4.632185804939911 1.224848486471511
26 1 3.1504334258282798 3.5510292285585212 3.8900252968219512
27 1 1.4935638877403896 4.4159955503470334 6.237934659207224
28 1 3.1002009223427502 3.3613707244106976 8.9663059965875184
29 1 1.3781892749546063 4.2973253849846955 11.5776660958054568
30 1 2.9587534030130098 3.3448259687070112 14.0556313608521339
31 1 -0.0971483889274204 7.3215463094034936 1.2347120487151806
32 1 1.4258161814382633 6.4286462633070976 3.932697423800624
33 1 -0.2288018457079651 7.2028317951370351 6.5243595126655444
34 1 1.3089320098672781 6.1865324440275131 9.0086900468686917
35 1 -0.2593876122918821 6.9599539748795322 11.422955118342026
36 1 1.2263037965741439 5.9676108202342108 14.1475600061347873
37 1 6.4590929995587106 1.7652159745697332 1.4181050454542068
38 1 7.9319230376453174 0.8365846046550828 3.7270612284397072
39 1 6.3137742109924409 1.5756925403765002 6.3694263483875524
40 1 7.928417957553025 0.63910892116206 8.9142729092629426
41 1 6.1740874788928881 1.4519786697525302 11.5470012507502596
42 1 7.8339143108471952 0.506685067678139 13.972617769963394
43 1 4.796227296398243 4.511008770521336 1.327785339173545
44 1 6.3762306199628389 3.545946864324478 3.683555517825715
45 1 4.6067907599901076 4.4601426816594546 6.4970427930573572
46 1 6.2892126509910727 3.4749941192029624 9.0625251458754992
47 1 4.5481889343362792 4.270351507177776 11.3541584189395035
48 1 6.0875162268402967 3.3448750770211589 13.9581664330797448
49 1 3.1154340832105567 7.407842216920324 1.2293044813456125
50 1 4.8029827870272612 6.2899483730781807 3.7407034988537808
51 1 3.0337238353326397 7.1200795459381823 6.4451935844758675
52 1 4.539760324611967 6.1700160677732621 8.7998865401581288
53 1 2.904136625567392 6.9882904736015564 11.5433589193143096
54 1 4.4437511402626999 5.951078428331475 14.1267388031260914
55 1 1.5705578349066332 0.8131084825776714 1.171876085234342
ITEM: TIMESTEP energy, energy_weight, force_weight, nsims
4 -74364.7474529419412205 1 1 544
ITEM: NUMBER OF ATOMS
55
ITEM: BOX BOUNDS xy xz yz pp pp pp
-5.1826673749483483 9.7031527908387006 -4.9681597762012774
-0.3775884877026972 8.3347753716634632 -0.2145075987470712
0.0 15.3577038923111165 -0.3775884877026972
ITEM: ATOMS id type x y z
1 1 -0.1149749431127256 1.8043406122782176 1.3103039383880924
2 1 1.5304921993858644 0.8689067919177196 3.8230285526319584
3 1 -0.0501577764688006 1.7355165639544544 6.5233505914611838
4 1 1.4189408575379143 0.7860769425937452 9.0387551250342568
5 1 -0.2176449041475619 1.5636846090355652 11.5835788761834434
6 1 1.4397585766499783 0.6351212216333302 14.0811469724559899
7 1 -1.766212754617805 4.5594547325016458 1.2001646291539938
8 1 -0.1837878650000182 3.6645006307765536 3.9289260640510006
9 1 -1.7595873108540534 4.3987472509268058 6.4394514550974878
10 1 -0.2372383616242415 3.5405854300660314 9.0652548431004423
11 1 -1.9049176917798736 4.3404076567225651 11.4968907807929046
12 1 -0.3092906146497641 3.3354329886739609 14.1619822468931673
13 1 -3.2899336580594696 7.3377651907259809 1.2360064384978695
14 1 -1.8114637043647688 6.4501243879434425 3.761318226851874
15 1 -3.3077730704407658 7.1824954623701958 6.3634507858456093
16 1 -1.8224005231827386 6.2681445678714099 9.0182802342050294
17 1 -3.4660321261421738 7.045990685206097 11.5207935111308952
18 1 -1.9081980147943126 6.1742105780649688 14.1136838039222408
19 1 3.1370947056712431 1.8730376069196824 1.3406062239380112
20 1 4.8317841455410742 0.9109182864163372 3.7174950187951642
21 1 3.0308074079447098 1.6937145626670472 6.3205505757928267
22 1 4.7829310302496086 0.6538919922346222 8.9072394277524526
23 1 3.1182066967350877 1.5005789296742928 11.6481150194797164
24 1 4.7128455784991372 0.5909320542185652 14.1436190403491313
25 1 1.4480739029882264 4.6274772680157624 1.2665099099687778
26 1 3.0961158149134298 3.643340787060117 3.901684568886819
27 1 1.4398005598031876 4.4160275763781023 6.5151910433831982
28 1 3.1603509666265071 3.4508631055042014 8.9854254982682082
29 1 1.3789921909391188 4.3140431353487037 11.5148562228061326
30 1 2.9359271116583186 3.3828559480084986 14.0798861049664303
31 1 -0.1599335339900868 7.3944567031265338 1.2102408186777392
32 1 1.3677672056607535 6.4210024662942251 3.8313647143047058
33 1 -0.2440684916825397 7.2766968023808749 6.4311137576543516
34 1 1.452599138279828 6.2333292022838878 8.9489954888652558
35 1 -0.3558157241858084 7.146430936938736 11.4011447116466798
36 1 1.2912917997885338 6.1226877277453822 14.0534677827308752
37 1 6.3120497794798212 1.8937027493092808 1.1968058993127453
38 1 8.0118991664236212 0.8542824841979002 3.8676795409284642
39 1 6.3935907838868005 1.6481289954480512 6.542366500420644
40 1 7.8673963544582382 0.6875907004096738 8.9435650047689368
41 1 6.3176070453440794 1.5081388129621316 11.5402010415396124
42 1 7.8378223730816368 0.6202033580804456 14.0174601101849632
43 1 4.633152948218565 4.6626615628014322 1.3105174104721953
44 1 6.3330075100351975 3.6734143172316386 3.9673832903677368
45 1 4.608828380004284 4.48256341711945 6.5079637079314772
46 1 6.3294576720867957 3.4563829304056478 8.9257055309125662
47 1 4.672779543518975 4.4228319273766044 11.4390567394752392
48 1 6.2840661737396877 3.371564745766527 14.0282934345105996
49 1 3.131442998478466 7.3089699380578761 1.3826694391286621
50 1 4.7387153740932462 6.3389948340859306 3.9017797866509514
51 1 2.9878956105023326 7.3117536986070278 6.3630084839735091
52 1 4.5830232190641604 6.2984119722132937 9.0745001808436125
53 1 2.968371315468616 7.1263831919247522 11.4163703392855194
54 1 4.550969950390388 6.1789987691562187 14.1649124967958216
55 1 1.472556573708445 0.9329141668900732 1.3384346446076385
ITEM: TIMESTEP energy, energy_weight, force_weight, nsims
5 -74361.0188938753151455 1 1 544
ITEM: NUMBER OF ATOMS
55
ITEM: BOX BOUNDS xy xz yz pp pp pp
-5.1000353257815663 9.7031527908387006 -4.9388271453145718
-0.2826043250331772 8.3521925309230181 -0.1612081804669942
0.0 15.3913738324953276 -0.2826043250331772
ITEM: ATOMS id type x y z
1 1 0.0130011815828769 1.8510694455919524 1.3255866887358101
2 1 1.4521114542595028 0.9092861307718672 3.7081298012967384
3 1 -0.1201777575358207 1.7131102555088066 6.4297402619753905
4 1 1.547926204001767 0.7748298714948278 9.0262588709678209
5 1 -0.1037130426514371 1.6842307885381924 11.6180877283534888
6 1 1.4376749921509207 0.7466894413393078 14.1809977334452757
7 1 -1.6394793195505518 4.626550336057747 1.359536981135528
8 1 -0.1069883553478417 3.7157401741745458 3.7273028356798782
9 1 -1.8001498527693306 4.4826738291204 6.3172524063205984
10 1 -0.1534299907728032 3.5089111732422364 8.9788457438768158
11 1 -1.8405752206168604 4.4796236374836048 11.5388452401768848
12 1 -0.1136594063875197 3.3874835248657576 14.1086521198830166
13 1 -3.4014937126176817 7.3705504990840991 1.3015361279851527
14 1 -1.76459120345393 6.4422806680039688 3.8410789493244498
15 1 -3.2805703044037618 7.2454409884117919 6.3705819775128108
16 1 -1.8626646984359752 6.3223072142226862 9.0526689293269982
17 1 -3.453403294929018 7.2066379627893129 11.6164439296281756
18 1 -1.8524020951195658 6.2806753458331049 14.1354531191375443
19 1 3.1877009383386827 1.8378318645460986 1.2994413620065499
20 1 4.746337439046994 0.841928450708062 3.922502395173117
21 1 3.109301322559586 1.82025992255229 6.2702917856202705
22 1 4.7494703658493318 0.7500655114617364 8.9699048948175192
23 1 3.0268077997666394 1.6623426429247986 11.5208096283199684
24 1 4.7104785886632898 0.6431886378825884 14.2367899244506884
25 1 1.6091300183538032 4.5667618207995906 1.2717999937407716
26 1 3.1029437612325568 3.6074052499614592 3.890212832009925
27 1 1.4298221521046111 4.505238160125769 6.3676052858136068
28 1 3.1653553125120775 3.593010858162716 9.0365818653972738
29 1 1.3638785523915271 4.4650835030132258 11.3986852335086475
30 1 3.0377450769702792 3.4700310575709414 14.1675425944409117
31 1 -0.1112728471516154 7.3188921771750826 1.3677221137396489
32 1 1.570992077949383 6.47864925416369 3.926334847257408
33 1 -0.157541657921314 7.3571289621929364 6.3921006572680233
34 1 1.5312561646037838 6.2682205452461109 8.8340729424709822
35 1 -0.1860474955884508 7.1581476025672606 11.4225295498499495
36 1 1.4056461722298428 6.2051092411563778 13.9958302714160592
37 1 6.4011413301431501 1.874063369280865 1.399987050704709
38 1 7.9293198028953978 0.89124788396559 3.73064738121368
39 1 6.4908679460193932 1.6580658360878978 6.5589339147879722
40 1 8.0460563272259567 0.7694759044839128 9.006619477957555
41 1 6.3358897810260509 1.6810986552266996 11.5263412880753648
42 1 8.0285604710327885 0.6605875601508908 14.0293834663709003
43 1 4.8242537248646462 4.6480788066104478 1.3888390786378329
44 1 6.3042224303853543 3.6686796109471058 3.7605620553945172
45 1 4.6274153256655036 4.5890712552877986 6.5416632542105298
46 1 6.3216693778776314 3.5925494458264026 9.0419242112545319
47 1 4.7339376542942048 4.44709831425057 11.5580075005983396
48 1 6.245974489662844 3.4299808130795433 13.9748441331954538
49 1 3.1518002634599598 7.4735154944475904 1.2191568778214879
50 1 4.7546503753541334 6.3746712359664208 3.7861348230172088
51 1 3.1016494723141408 7.3754067556351659 6.5074666998294912
52 1 4.640779728838588 6.3487044450817978 8.9451278612219696
53 1 3.021317389380985 7.1364057169374498 11.6627688865892196
54 1 4.6581803361961862 6.3000395298742378 14.2599293158704637
55 1 1.4846274314885434 0.966461619348316 1.2091124672584015
ITEM: TIMESTEP energy, energy_weight, force_weight, nsims
6 -74362.2430468962704715 1 1 544
ITEM: NUMBER OF ATOMS
55
ITEM: BOX BOUNDS xy xz yz pp pp pp
-5.0171898072533851 9.7031527908387006 -4.9095042175806576
-0.1880179916280815 8.3694641428907115 -0.1076855896727279
0.0 15.4242675204562705 -0.1880179916280815
ITEM: ATOMS id type x y z
1 1 -0.0276118482864176 1.818342360056098 1.3280093819635084
2 1 1.6398765012284994 0.871954290837436 3.9663349686178098
3 1 -0.0287181322484206 1.697543059925769 6.5059483279946956
4 1 1.4966943309237388 0.8046631232506356 9.142930460947964
5 1 -0.0725771725870921 1.7400998747666972 11.681889831381982
6 1 1.3949459121850949 0.8044732978323604 14.1281709479925883
7 1 -1.7274108255389204 4.6030960257101086 1.3041619219501311
8 1 -0.1783478817752187 3.755410225205802 3.7614035230607712
9 1 -1.7401463520874618 4.5481793820830392 6.4004031502057171
10 1 -0.029644512132944 3.5634506867100254 8.8986717604940182
11 1 -1.8407491611346944 4.549899914726229 11.4861250280123492
12 1 -0.0703309485634795 3.6028660149454868 14.1294388227827685
13 1 -3.2297496231084861 7.4400287071456246 1.2356504104777679
14 1 -1.7170080149598738 6.5220342995328036 3.8450493258242062
15 1 -3.4321253802103948 7.3775039590991156 6.4438286329828092
16 1 -1.7954420597897876 6.4003363597527905 9.0680780330979438
17 1 -3.4840610818895304 7.3615954020035437 11.6172004534011872
18 1 -1.7632084050285984 6.3602024517292417 14.2358832353681901
19 1 3.2071643025767887 1.7895223408706282 1.3074611727727563
20 1 4.8918029126793572 0.8912234618839504 3.9792990654687528
21 1 3.1422832052028316 1.8070042092384004 6.3418973610738743
22 1 4.77289658070739 0.75093864963457 8.9007710033035536
23 1 3.1865619670534322 1.6694271819430284 11.5565938790330592
24 1 4.8127379055399686 0.7442591834366622 14.2529949177553839
25 1 1.677386857355773 4.6262922652084876 1.2233958299327661
26 1 3.2179674873243602 3.712813892415039 3.7561808660783448
27 1 1.618788472024628 4.4910980962083844 6.4420687240587249
28 1 3.2025708855728676 3.6033880314333874 9.0735536480677048
29 1 1.5502112116027696 4.57630704382487 11.7170448219146088
30 1 3.0800978767497198 3.4993085882331818 14.1181405468240353
31 1 -0.1043093147516756 7.4859892649331066 1.3672317518412769
32 1 1.4879948357368572 6.5061791267619792 3.8368837185988768
33 1 -0.0506846818164906 7.3981343401204383 6.5092213575625354
34 1 1.3850247262674989 6.4553722384168896 8.8750788008947286
35 1 -0.1335593375036048 7.2911084231345855 11.6412468864655808
36 1 1.395497921116331 6.304351016478809 14.2024727294921274
37 1 6.3960793030352248 1.8086947748178214 1.2697257022839601
38 1 8.0829256071856186 0.9134846649251356 3.9717380895302256
39 1 6.3924436298085992 1.7364409298389998 6.3108899560775012
40 1 8.0987304797914241 0.7692362888575758 8.9242266869219104
41 1 6.3694714781693884 1.706101233535095 11.4475705289182202
42 1 7.9824978281902554 0.7062040665498404 14.2480514400150753
43 1 4.741768788356671 4.5990747766097746 1.1844649787111341
44 1 6.3904640484877202 3.657951941588694 4.0032282740999898
45 1 4.7838533354338724 4.4927401121627578 6.503250623605367
46 1 6.4398464667992173 3.5474890343291596 8.9706475624514752
47 1 4.7962432918534966 4.4831499082776932 11.6015571612819422
48 1 6.3635840135489357 3.5418147053544242 14.1247220817750119
49 1 3.2261482973776796 7.363383788689406 1.3740585326458306
50 1 4.8491366741074726 6.454670732601132 3.789936875546863
51 1 3.0841981501360207 7.4426454941425302 6.3304448424399347
52 1 4.7182270452580708 6.3959890239497783 9.1429366306549724
53 1 3.0143122102458451 7.3645315060162196 11.6879808746258096
54 1 4.7166582651835692 6.3889369881898688 14.2657785506763393
55 1 1.54790836035207 0.9727506806171368 1.2059000832843123
ITEM: TIMESTEP energy, energy_weight, force_weight, nsims
7 -74362.2456246147999070 1 1 544
ITEM: NUMBER OF ATOMS
55
ITEM: BOX BOUNDS xy xz yz pp pp pp
-4.9341211162110152 9.7031527908387006 -4.880171586693952
-0.0938197843346194 8.3865999107193332 -0.0539495295170632
0.0 15.456384956193947 -0.0938197843346194
ITEM: ATOMS id type x y z
1 1 0.0429137992843043 1.9287718646109492 1.1731937155224672
2 1 1.5516489858901688 0.936504877557056 3.740259682779461
3 1 -0.1103937670338796 1.8445617570005264 6.3490517068641941
4 1 1.613089679149605 0.9611098597027776 8.9671345639460984
5 1 0.0285119953761965 1.80788017898237 11.4870539201712116
6 1 1.5763560279820938 0.9297807243661352 14.1515414818070955
7 1 -1.5546097543003484 4.622700203189238 1.3122192612879449
8 1 0.0114601690818456 3.6797751464097522 3.9812169960540462
9 1 -1.673914618815432 4.6835256658530594 6.3299785278282528
10 1 -0.1425472111502157 3.7534690161252886 9.1613193107047444
11 1 -1.6483175070264476 4.6614995103423356 11.4934296789656436
12 1 -0.0433032116284062 3.6099057791212692 14.2387185842370219
13 1 -3.2521345467970449 7.3938757496623842 1.2212136123043707
14 1 -1.7340981382068572 6.4908747491239574 3.9017371733323052
15 1 -3.3179517410488933 7.4356451598837597 6.442355720290756
16 1 -1.7158450000431108 6.4289436494209138 9.1481968398769364
17 1 -3.335120457798733 7.4265650767453577 11.6920751384226486
18 1 -1.578655519369622 6.3954362748649594 14.0890574999831895
19 1 3.1338387159167529 1.8624406745642492 1.1980460368935313
20 1 4.9018792998893162 0.9258166903700434 3.9711842565789808
21 1 3.2218937774417067 1.75761993507085 6.4143410225576538
22 1 4.8043192562553072 0.8374424006238402 9.1686348177045112
23 1 3.2018232614694942 1.758124208066937 11.7170912974742478
24 1 4.8396486272777636 0.8697039968409396 14.3034112834711724
25 1 1.5608751722179378 4.6171904618429852 1.3536269165855883
26 1 3.2653332166467326 3.700284425056251 3.959964466739279
27 1 1.5135172833991268 4.6960038135132764 6.5814848238354404
28 1 3.1215384425838804 3.7548043871475918 8.93800700649615
29 1 1.613132255100439 4.5694554600462656 11.7296001498192962
30 1 3.1181120421768753 3.5926957419290018 14.0908643513845657
31 1 -0.0366050852517616 7.5072510240896034 1.1963133761399421
32 1 1.6168615660579354 6.5769981013663932 3.8122586151824032
33 1 0.077341919466855 7.3500408507736781 6.3176922474265736
34 1 1.5890509895844154 6.3999231935841517 8.883107472770245
35 1 0.0423937718670416 7.3633518085028236 11.6677761556330158
36 1 1.657720002786189 6.3807831858047024 14.1986262672991508
37 1 6.3622571699367576 1.9288514498206538 1.1692013312882823
38 1 7.973223328473308 0.9075102404252296 4.0054788835197837
39 1 6.3870714057859175 1.874521175913958 6.4133038991270928
40 1 8.1152048757956497 0.9097233781406848 8.9695009364828912
41 1 6.5335098263592952 1.7105153079635824 11.7372386952646438
42 1 7.996727597743548 0.7894847684494254 14.3014313205582848
43 1 4.8541127595275482 4.6183060674967616 1.2103184065487491
44 1 6.3928987900028318 3.649249313163538 3.9605394442596502
45 1 4.8207958171833188 4.5649079055422384 6.3982663822032127
46 1 6.3522849874229639 3.7426194296745918 9.0996715193069662
47 1 4.8100229457749598 4.5448007606912402 11.5778570905118592
48 1 6.3895593742726584 3.6673947902487464 14.0635730124674154
49 1 3.0666121718321033 7.5241869614190052 1.3364069581058929
50 1 4.8883832264601362 6.4784750629416178 3.923168996712564
51 1 3.2850141664070978 7.3372295383373043 6.5402672820727572
52 1 4.8537938264742646 6.499835657935047 8.9488110195805302
53 1 3.0762374811815603 7.4598914502892014 11.7194808545884738
54 1 4.7125871254582156 6.518827210767137 14.1178403800486105
55 1 1.6480192889177354 0.932135282269376 1.410266839257561
ITEM: TIMESTEP energy, energy_weight, force_weight, nsims