ITEM: TIMESTEP energy, energy_weight, force_weight, nsims
0 -21639.3393477147146784 1 1 116
ITEM: NUMBER OF ATOMS
16
ITEM: BOX BOUNDS pp pp pp
0.0 3.2343842636128999
0.0 5.6021184981749866
0.0 20.6690350732659844
ITEM: ATOMS id type x y z
1 1 0.0 1.867372645987712 1.3000016968716446
2 1 1.61719213180645 4.668431895075206 1.3000016968716446
3 1 0.0 0.0 3.8812913462595988
4 1 1.61719213180645 2.8010592490874934 3.8812913462595988
5 1 0.0 1.867372645987712 6.4625809956475528
6 1 1.61719213180645 4.668431895075206 6.4625809956475528
7 1 0.0 0.0 9.0438727119390165
8 1 1.61719213180645 2.8010592490874934 9.0438727119390165
9 1 0.0 1.867372645987712 11.6251623613269698
10 1 1.61719213180645 4.668431895075206 11.6251623613269698
11 1 0.0 0.0 14.2064540776184281
12 1 1.61719213180645 2.8010592490874934 14.2064540776184281
13 1 0.0 1.867372645987712 16.7877437270063866
14 1 1.61719213180645 4.668431895075206 16.7877437270063866
15 1 0.0 0.0 19.3690333763943343
16 1 1.61719213180645 2.8010592490874934 19.3690333763943343
ITEM: TIMESTEP energy, energy_weight, force_weight, nsims
1 -21639.302684138434416 1 1 116
ITEM: NUMBER OF ATOMS
16
ITEM: BOX BOUNDS pp pp pp
0.0 3.2343842636128999
0.0 5.6021184981749866
0.0 20.7690357659283684
ITEM: ATOMS id type x y z
1 1 0.0 1.867372645987712 1.3500018631103799
2 1 1.61719213180645 4.668431895075206 1.3500018631103799
3 1 0.0 0.0 3.93129185779667
4 1 1.61719213180645 2.8010592490874934 3.93129185779667
5 1 0.0 1.867372645987712 6.5125818524829598
6 1 1.61719213180645 4.668431895075206 6.5125818524829598
7 1 0.0 0.0 9.0938718471692504
8 1 1.61719213180645 2.8010592490874934 9.0938718471692504
9 1 0.0 1.867372645987712 11.6751639187591182
10 1 1.61719213180645 4.668431895075206 11.6751639187591182
11 1 0.0 0.0 14.2564539134454034
12 1 1.61719213180645 2.8010592490874934 14.2564539134454034
13 1 0.0 1.867372645987712 16.8377439081316994
14 1 1.61719213180645 4.668431895075206 16.8377439081316994
15 1 0.0 0.0 19.4190339028179828
16 1 1.61719213180645 2.8010592490874934 19.4190339028179828
ITEM: TIMESTEP energy, energy_weight, force_weight, nsims
2 -21639.2251886357298656 1 1 116
ITEM: NUMBER OF ATOMS
16
ITEM: BOX BOUNDS pp pp pp
0.0 3.2343842636128999
0.0 5.6021184981749866
0.0 20.8690364585907524
ITEM: ATOMS id type x y z
1 1 0.0 1.867372645987712 1.4000013977282064
2 1 1.61719213180645 4.668431895075206 1.4000013977282064
3 1 0.0 0.0 3.9812925172912972
4 1 1.61719213180645 2.8010592490874934 3.9812925172912972
5 1 0.0 1.867372645987712 6.5625815499507416
6 1 1.61719213180645 4.668431895075206 6.5625815499507416
7 1 0.0 0.0 9.1438726695138328
8 1 1.61719213180645 2.8010592490874934 9.1438726695138328
9 1 0.0 1.867372645987712 11.7251637890769232
10 1 1.61719213180645 4.668431895075206 11.7251637890769232
11 1 0.0 0.0 14.3064549086400117
12 1 1.61719213180645 2.8010592490874934 14.3064549086400117
13 1 0.0 1.867372645987712 16.8877439412994584
14 1 1.61719213180645 4.668431895075206 16.8877439412994584
15 1 0.0 0.0 19.4690350608625452
16 1 1.61719213180645 2.8010592490874934 19.4690350608625452
ITEM: TIMESTEP energy, energy_weight, force_weight, nsims
3 -21639.1140486411786704 1 1 116
ITEM: NUMBER OF ATOMS
16
ITEM: BOX BOUNDS pp pp pp
0.0 3.2343842636128999
0.0 5.6021184981749866
0.0 20.9690371512531364
ITEM: ATOMS id type x y z
1 1 0.0 1.867372645987712 1.4500005313942941
2 1 1.61719213180645 4.668431895075206 1.4500005313942941
3 1 0.0 0.0 4.0312911016172697
4 1 1.61719213180645 2.8010592490874934 4.0312911016172697
5 1 0.0 1.867372645987712 6.612581671840247
6 1 1.61719213180645 4.668431895075206 6.612581671840247
7 1 0.0 0.0 9.1938722420632217
8 1 1.61719213180645 2.8010592490874934 9.1938722420632217
9 1 0.0 1.867372645987712 11.7751649091899164
10 1 1.61719213180645 4.668431895075206 11.7751649091899164
11 1 0.0 0.0 14.3564554794128903
12 1 1.61719213180645 2.8010592490874934 14.3564554794128903
13 1 0.0 1.867372645987712 16.9377460496358658
14 1 1.61719213180645 4.668431895075206 16.9377460496358658
15 1 0.0 0.0 19.5190366198588414
16 1 1.61719213180645 2.8010592490874934 19.5190366198588414
ITEM: TIMESTEP energy, energy_weight, force_weight, nsims
4 -21638.9743616318992288 1 1 116
ITEM: NUMBER OF ATOMS
16
ITEM: BOX BOUNDS pp pp pp
0.0 3.2343842636128999
0.0 5.6021184981749866
0.0 21.0690378439155168
ITEM: ATOMS id type x y z
1 1 0.0 1.867372645987712 1.5000017216824276
2 1 1.61719213180645 4.668431895075206 1.5000017216824276
3 1 0.0 0.0 4.0812917483600124
4 1 1.61719213180645 2.8010592490874934 4.0812917483600124
5 1 0.0 1.867372645987712 6.6625838819413828
6 1 1.61719213180645 4.668431895075206 6.6625838819413828
7 1 0.0 0.0 9.2438739086189674
8 1 1.61719213180645 2.8010592490874934 9.2438739086189674
9 1 0.0 1.867372645987712 11.8251639352965512
10 1 1.61719213180645 4.668431895075206 11.8251639352965512
11 1 0.0 0.0 14.4064539619741368
12 1 1.61719213180645 2.8010592490874934 14.4064539619741368
13 1 0.0 1.867372645987712 16.987746095555508
14 1 1.61719213180645 4.668431895075206 16.987746095555508
15 1 0.0 0.0 19.56903612223309
16 1 1.61719213180645 2.8010592490874934 19.56903612223309
ITEM: TIMESTEP energy, energy_weight, force_weight, nsims
5 -21638.8125863260866032 1 1 116
ITEM: NUMBER OF ATOMS
16
ITEM: BOX BOUNDS pp pp pp
0.0 3.2343842636128999
0.0 5.6021184981749866
0.0 21.1690385365779008
ITEM: ATOMS id type x y z
1 1 0.0 1.867372645987712 1.5500012354559414
2 1 1.61719213180645 4.668431895075206 1.5500012354559414
3 1 0.0 0.0 4.131292404394495
4 1 1.61719213180645 2.8010592490874934 4.131292404394495
5 1 0.0 1.867372645987712 6.7125835733330472
6 1 1.61719213180645 4.668431895075206 6.7125835733330472
7 1 0.0 0.0 9.2938747422715995
8 1 1.61719213180645 2.8010592490874934 9.2938747422715995
9 1 0.0 1.867372645987712 11.8751637943062996
10 1 1.61719213180645 4.668431895075206 11.8751637943062996
11 1 0.0 0.0 14.4564549632448536
12 1 1.61719213180645 2.8010592490874934 14.4564549632448536
13 1 0.0 1.867372645987712 17.0377461321834076
14 1 1.61719213180645 4.668431895075206 17.0377461321834076
15 1 0.0 0.0 19.61903730112196
16 1 1.61719213180645 2.8010592490874934 19.61903730112196
ITEM: TIMESTEP energy, energy_weight, force_weight, nsims
6 -21638.6350796720071232 1 1 116
ITEM: NUMBER OF ATOMS
16
ITEM: BOX BOUNDS pp pp pp
0.0 3.2343842636128999
0.0 5.6021184981749866
0.0 21.2690359948560222
ITEM: ATOMS id type x y z
1 1 0.0 1.867372645987712 1.600001516977835
2 1 1.61719213180645 4.668431895075206 1.600001516977835
3 1 0.0 0.0 4.1812925476503429
4 1 1.61719213180645 2.8010592490874934 4.1812925476503429
5 1 0.0 1.867372645987712 6.7625814514192514
6 1 1.61719213180645 4.668431895075206 6.7625814514192514
7 1 0.0 0.0 9.3438724820917578
8 1 1.61719213180645 2.8010592490874934 9.3438724820917578
9 1 0.0 1.867372645987712 11.9251635127642644
10 1 1.61719213180645 4.668431895075206 11.9251635127642644
11 1 0.0 0.0 14.506454543436771
12 1 1.61719213180645 2.8010592490874934 14.506454543436771
13 1 0.0 1.867372645987712 17.087743447205682
14 1 1.61719213180645 4.668431895075206 17.087743447205682
15 1 0.0 0.0 19.669034477878185
16 1 1.61719213180645 2.8010592490874934 19.669034477878185
ITEM: TIMESTEP energy, energy_weight, force_weight, nsims
7 -21638.447247994081408 1 1 116
ITEM: NUMBER OF ATOMS
16
ITEM: BOX BOUNDS pp pp pp
0.0 3.2343842636128999
0.0 5.6021184981749866
0.0 21.3690366875184062
ITEM: ATOMS id type x y z
1 1 0.0 1.867372645987712 1.650001620212059
2 1 1.61719213180645 4.668431895075206 1.650001620212059
3 1 0.0 0.0 4.2312915021101949
4 1 1.61719213180645 2.8010592490874934 4.2312915021101949
5 1 0.0 1.867372645987712 6.812583520911999
6 1 1.61719213180645 4.668431895075206 6.812583520911999
7 1 0.0 0.0 9.3938734028101365
8 1 1.61719213180645 2.8010592490874934 9.3938734028101365
9 1 0.0 1.867372645987712 11.9751632847082714
10 1 1.61719213180645 4.668431895075206 11.9751632847082714
11 1 0.0 0.0 14.5564531666064064
12 1 1.61719213180645 2.8010592490874934 14.5564531666064064
13 1 0.0 1.867372645987712 17.1377451854082104
14 1 1.61719213180645 4.668431895075206 17.1377451854082104
15 1 0.0 0.0 19.719035067306347
16 1 1.61719213180645 2.8010592490874934 19.719035067306347
ITEM: TIMESTEP energy, energy_weight, force_weight, nsims
8 -21638.2535929798395952 1 1 116
ITEM: NUMBER OF ATOMS
16
ITEM: BOX BOUNDS pp pp pp
0.0 3.2343842636128999
0.0 5.6021184981749866
0.0 21.4690373801807902
ITEM: ATOMS id type x y z
1 1 0.0 1.867372645987712 1.7000021090084976
2 1 1.61719213180645 4.668431895075206 1.7000021090084976
3 1 0.0 0.0 4.2812931741472511
4 1 1.61719213180645 2.8010592490874934 4.2812931741472511
5 1 0.0 1.867372645987712 6.862582092382266
6 1 1.61719213180645 4.668431895075206 6.862582092382266
7 1 0.0 0.0 9.4438731575210167
8 1 1.61719213180645 2.8010592490874934 9.4438731575210167
9 1 0.0 1.867372645987712 12.0251642226597699
10 1 1.61719213180645 4.668431895075206 12.0251642226597699
11 1 0.0 0.0 14.6064552877985232
12 1 1.61719213180645 2.8010592490874934 14.6064552877985232
13 1 0.0 1.867372645987712 17.187744206033539
14 1 1.61719213180645 4.668431895075206 17.187744206033539
15 1 0.0 0.0 19.7690352711722924
16 1 1.61719213180645 2.8010592490874934 19.7690352711722924
ITEM: TIMESTEP energy, energy_weight, force_weight, nsims
9 -21638.0579904588630608 1 1 116
ITEM: NUMBER OF ATOMS
16
ITEM: BOX BOUNDS pp pp pp
0.0 3.2343842636128999
0.0 5.6021184981749866
0.0 21.5690380728431742
ITEM: ATOMS id type x y z
1 1 0.0 1.867372645987712 1.7500017471363238
2 1 1.61719213180645 4.668431895075206 1.7500017471363238
3 1 0.0 0.0 4.331291476830482
4 1 1.61719213180645 2.8010592490874934 4.331291476830482
5 1 0.0 1.867372645987712 6.912583363428447
6 1 1.61719213180645 4.668431895075206 6.912583363428447
7 1 0.0 0.0 9.4938730931226036
8 1 1.61719213180645 2.8010592490874934 9.4938730931226036
9 1 0.0 1.867372645987712 12.0751649797205705
10 1 1.61719213180645 4.668431895075206 12.0751649797205705
11 1 0.0 0.0 14.6564547094147298
12 1 1.61719213180645 2.8010592490874934 14.6564547094147298
13 1 0.0 1.867372645987712 17.2377465960126948
14 1 1.61719213180645 4.668431895075206 17.2377465960126948
15 1 0.0 0.0 19.8190363257068506
16 1 1.61719213180645 2.8010592490874934 19.8190363257068506
ITEM: TIMESTEP energy, energy_weight, force_weight, nsims
10 -21637.8637906760777696 1 1 116
ITEM: NUMBER OF ATOMS
16
ITEM: BOX BOUNDS pp pp pp
0.0 3.2343842636128999
0.0 5.6021184981749866
0.0 21.6690387655055582
ITEM: ATOMS id type x y z
1 1 0.0 1.867372645987712 1.800001545269139
2 1 1.61719213180645 4.668431895075206 1.800001545269139
3 1 0.0 0.0 4.3812932846518402
4 1 1.61719213180645 2.8010592490874934 4.3812932846518402
5 1 0.0 1.867372645987712 6.9625828571306654
6 1 1.61719213180645 4.668431895075206 6.9625828571306654
7 1 0.0 0.0 9.5438745965133656
8 1 1.61719213180645 2.8010592490874934 9.5438745965133656
9 1 0.0 1.867372645987712 12.1251641689921925
10 1 1.61719213180645 4.668431895075206 12.1251641689921925
11 1 0.0 0.0 14.7064559083748918
12 1 1.61719213180645 2.8010592490874934 14.7064559083748918
13 1 0.0 1.867372645987712 17.2877454808537188
14 1 1.61719213180645 4.668431895075206 17.2877454808537188
15 1 0.0 0.0 19.8690372202364146
16 1 1.61719213180645 2.8010592490874934 19.8690372202364146
ITEM: TIMESTEP energy, energy_weight, force_weight, nsims
11 -21637.673849040449568 1 1 116
ITEM: NUMBER OF ATOMS
16
ITEM: BOX BOUNDS pp pp pp
0.0 3.2343842636128999
0.0 5.6021184981749866
0.0 21.769036223783676
ITEM: ATOMS id type x y z
1 1 0.0 1.867372645987712 1.850002359213053
2 1 1.61719213180645 4.668431895075206 1.850002359213053
3 1 0.0 0.0 4.4312919522916712
4 1 1.61719213180645 2.8010592490874934 4.4312919522916712
5 1 0.0 1.867372645987712 7.0125815453702893
6 1 1.61719213180645 4.668431895075206 7.0125815453702893
7 1 0.0 0.0 9.5938733153525302
8 1 1.61719213180645 2.8010592490874934 9.5938733153525302
9 1 0.0 1.867372645987712 12.1751629084311475
10 1 1.61719213180645 4.668431895075206 12.1751629084311475
11 1 0.0 0.0 14.7564546784133874
12 1 1.61719213180645 2.8010592490874934 14.7564546784133874
13 1 0.0 1.867372645987712 17.3377442714920065
14 1 1.61719213180645 4.668431895075206 17.3377442714920065
15 1 0.0 0.0 19.9190338645706256
16 1 1.61719213180645 2.8010592490874934 19.9190338645706256
ITEM: TIMESTEP energy, energy_weight, force_weight, nsims
12 -21637.4905038117794912 1 1 116
ITEM: NUMBER OF ATOMS
16
ITEM: BOX BOUNDS pp pp pp
0.0 3.2343842636128999
0.0 5.6021184981749866
0.0 21.8690369164460598
ITEM: ATOMS id type x y z
1 1 0.0 1.867372645987712 1.9000016094340584
2 1 1.61719213180645 4.668431895075206 1.9000016094340584
3 1 0.0 0.0 4.481291512829853
4 1 1.61719213180645 2.8010592490874934 4.481291512829853
5 1 0.0 1.867372645987712 7.0625836031293376
6 1 1.61719213180645 4.668431895075206 7.0625836031293376
7 1 0.0 0.0 9.6438735065251322
8 1 1.61719213180645 2.8010592490874934 9.6438735065251322
9 1 0.0 1.867372645987712 12.2251634099209259
10 1 1.61719213180645 4.668431895075206 12.2251634099209259
11 1 0.0 0.0 14.8064533133167196
12 1 1.61719213180645 2.8010592490874934 14.8064533133167196
13 1 0.0 1.867372645987712 17.3877454036162043
14 1 1.61719213180645 4.668431895075206 17.3877454036162043
15 1 0.0 0.0 19.9690353070119996
16 1 1.61719213180645 2.8010592490874934 19.9690353070119996
ITEM: TIMESTEP energy, energy_weight, force_weight, nsims
13 -21637.3155265762943600 1 1 116
ITEM: NUMBER OF ATOMS
16
ITEM: BOX BOUNDS pp pp pp
0.0 3.2343842636128999
0.0 5.6021184981749866
0.0 21.9690376091084438
ITEM: ATOMS id type x y z
1 1 0.0 1.867372645987712 1.9500025348371184
2 1 1.61719213180645 4.668431895075206 1.9500025348371184
3 1 0.0 0.0 4.5312919560832504
4 1 1.61719213180645 2.8010592490874934 4.5312919560832504
5 1 0.0 1.867372645987712 7.1125835742331436
6 1 1.61719213180645 4.668431895075206 7.1125835742331436
7 1 0.0 0.0 9.6938729954792766
8 1 1.61719213180645 2.8010592490874934 9.6938729954792766
9 1 0.0 1.867372645987712 12.2751646136291672
10 1 1.61719213180645 4.668431895075206 12.2751646136291672
11 1 0.0 0.0 14.856454034875302
12 1 1.61719213180645 2.8010592490874934 14.856454034875302
13 1 0.0 1.867372645987712 17.4377456530251927
14 1 1.61719213180645 4.668431895075206 17.4377456530251927
15 1 0.0 0.0 20.0190350742713292
16 1 1.61719213180645 2.8010592490874934 20.0190350742713292
ITEM: TIMESTEP energy, energy_weight, force_weight, nsims
14 -21637.1501923155265104 1 1 116
ITEM: NUMBER OF ATOMS
16
ITEM: BOX BOUNDS pp pp pp
0.0 3.2343842636128999
0.0 5.6021184981749866
0.0 22.0690383017708278
ITEM: ATOMS id type x y z
1 1 0.0 1.867372645987712 2.0000021822903213
2 1 1.61719213180645 4.668431895075206 2.0000021822903213
3 1 0.0 0.0 4.5812917989301348
4 1 1.61719213180645 2.8010592490874934 4.5812917989301348
5 1 0.0 1.867372645987712 7.1625836224737789
6 1 1.61719213180645 4.668431895075206 7.1625836224737789
7 1 0.0 0.0 9.7438732391135936
8 1 1.61719213180645 2.8010592490874934 9.7438732391135936
9 1 0.0 1.867372645987712 12.325165062657236
10 1 1.61719213180645 4.668431895075206 12.325165062657236
11 1 0.0 0.0 14.9064546792970472
12 1 1.61719213180645 2.8010592490874934 14.9064546792970472
13 1 0.0 1.867372645987712 17.4877465028406966
14 1 1.61719213180645 4.668431895075206 17.4877465028406966
15 1 0.0 0.0 20.0690361194805078
16 1 1.61719213180645 2.8010592490874934 20.0690361194805078
ITEM: TIMESTEP energy, energy_weight, force_weight, nsims
15 -21636.9952889302367120 1 1 116
ITEM: NUMBER OF ATOMS
16
ITEM: BOX BOUNDS pp pp pp
0.0 3.2343842636128999
0.0 5.6021184981749866
0.0 22.1690389944332118
ITEM: ATOMS id type x y z
1 1 0.0 1.867372645987712 2.0500020724698311
2 1 1.61719213180645 4.668431895075206 2.0500020724698311
3 1 0.0 0.0 4.6312918151529532
4 1 1.61719213180645 2.8010592490874934 4.6312918151529532
5 1 0.0 1.867372645987712 7.212583774739973
6 1 1.61719213180645 4.668431895075206 7.212583774739973
7 1 0.0 0.0 9.7938735174230942
8 1 1.61719213180645 2.8010592490874934 9.7938735174230942
9 1 0.0 1.867372645987712 12.3751654770101158
10 1 1.61719213180645 4.668431895075206 12.3751654770101158
11 1 0.0 0.0 14.9564552196932378
12 1 1.61719213180645 2.8010592490874934 14.9564552196932378
13 1 0.0 1.867372645987712 17.5377471792802596
14 1 1.61719213180645 4.668431895075206 17.5377471792802596
15 1 0.0 0.0 20.1190369219633816
16 1 1.61719213180645 2.8010592490874934 20.1190369219633816
ITEM: TIMESTEP energy, energy_weight, force_weight, nsims
16 -21636.8511535673969776 1 1 116
ITEM: NUMBER OF ATOMS
16
ITEM: BOX BOUNDS pp pp pp
0.0 3.2343842636128999
0.0 5.6021184981749866
0.0 22.2690396870955923
ITEM: ATOMS id type x y z
1 1 0.0 1.867372645987712 2.1000016191486761
2 1 1.61719213180645 4.668431895075206 2.1000016191486761
3 1 0.0 0.0 4.6812928585347064
4 1 1.61719213180645 2.8010592490874934 4.6812928585347064
5 1 0.0 1.867372645987712 7.2625840979207368
6 1 1.61719213180645 4.668431895075206 7.2625840979207368
7 1 0.0 0.0 9.8438753373067662
8 1 1.61719213180645 2.8010592490874934 9.8438753373067662
9 1 0.0 1.867372645987712 12.4251643497888278
10 1 1.61719213180645 4.668431895075206 12.4251643497888278
11 1 0.0 0.0 15.0064555891748554
12 1 1.61719213180645 2.8010592490874934 15.0064555891748554
13 1 0.0 1.867372645987712 17.5877468285608884
14 1 1.61719213180645 4.668431895075206 17.5877468285608884
15 1 0.0 0.0 20.1690380679469215
16 1 1.61719213180645 2.8010592490874934 20.1690380679469215
ITEM: TIMESTEP energy, energy_weight, force_weight, nsims
17 -21636.7178122137229376 1 1 116
ITEM: NUMBER OF ATOMS
16
ITEM: BOX BOUNDS pp pp pp
0.0 3.2343842636128999
0.0 5.6021184981749866
0.0 22.3690371453737171
ITEM: ATOMS id type x y z
1 1 0.0 1.867372645987712 2.150002242131309
2 1 1.61719213180645 4.668431895075206 2.150002242131309
3 1 0.0 0.0 4.7312929418477108
4 1 1.61719213180645 2.8010592490874934 4.7312929418477108
5 1 0.0 1.867372645987712 7.312583641564113
6 1 1.61719213180645 4.668431895075206 7.312583641564113
7 1 0.0 0.0 9.8938743412805118
8 1 1.61719213180645 2.8010592490874934 9.8938743412805118
9 1 0.0 1.867372645987712 12.475162804093202
10 1 1.61719213180645 4.668431895075206 12.475162804093202
11 1 0.0 0.0 15.0564535038096032
12 1 1.61719213180645 2.8010592490874934 15.0564535038096032
13 1 0.0 1.867372645987712 17.6377442035260046
14 1 1.61719213180645 4.668431895075206 17.6377442035260046
15 1 0.0 0.0 20.2190349032424095
16 1 1.61719213180645 2.8010592490874934 20.2190349032424095
ITEM: TIMESTEP energy, energy_weight, force_weight, nsims
18 -21636.5950350704733872 1 1 116
ITEM: NUMBER OF ATOMS
16
ITEM: BOX BOUNDS pp pp pp
0.0 3.2343842636128999
0.0 5.6021184981749866
0.0 22.4690378380360976
ITEM: ATOMS id type x y z
1 1 0.0 1.867372645987712 2.2000019142204934
2 1 1.61719213180645 4.668431895075206 2.2000019142204934
3 1 0.0 0.0 4.7812921660335404
4 1 1.61719213180645 2.8010592490874934 4.7812921660335404
5 1 0.0 1.867372645987712 7.3625824178465864
6 1 1.61719213180645 4.668431895075206 7.3625824178465864
7 1 0.0 0.0 9.9438726696596316
8 1 1.61719213180645 2.8010592490874934 9.9438726696596316
9 1 0.0 1.867372645987712 12.5251651683764642
10 1 1.61719213180645 4.668431895075206 12.5251651683764642
11 1 0.0 0.0 15.1064554201895103
12 1 1.61719213180645 2.8010592490874934 15.1064554201895103
13 1 0.0 1.867372645987712 17.68774567200256
14 1 1.61719213180645 4.668431895075206 17.68774567200256
15 1 0.0 0.0 20.2690359238156042
16 1 1.61719213180645 2.8010592490874934 20.2690359238156042
ITEM: TIMESTEP energy, energy_weight, force_weight, nsims
19 -21636.4824292077137216 1 1 116
ITEM: NUMBER OF ATOMS
16
ITEM: BOX BOUNDS pp pp pp
0.0 3.2343842636128999
0.0 5.6021184981749866
0.0 22.5690385306984816
ITEM: ATOMS id type x y z
1 1 0.0 1.867372645987712 2.2500022410871603
2 1 1.61719213180645 4.668431895075206 2.2500022410871603
3 1 0.0 0.0 4.8312931418625906
4 1 1.61719213180645 2.8010592490874934 4.8312931418625906
5 1 0.0 1.867372645987712 7.4125840426380219
6 1 1.61719213180645 4.668431895075206 7.4125840426380219
7 1 0.0 0.0 9.9938749434134522
8 1 1.61719213180645 2.8010592490874934 9.9938749434134522
9 1 0.0 1.867372645987712 12.5751635872850312
10 1 1.61719213180645 4.668431895075206 12.5751635872850312
11 1 0.0 0.0 15.1564544880604597
12 1 1.61719213180645 2.8010592490874934 15.1564544880604597
13 1 0.0 1.867372645987712 17.7377453888358936
14 1 1.61719213180645 4.668431895075206 17.7377453888358936
15 1 0.0 0.0 20.3190362896113186
16 1 1.61719213180645 2.8010592490874934 20.3190362896113186
ITEM: TIMESTEP energy, energy_weight, force_weight, nsims
20 -21636.3794687686640832 1 1 116
ITEM: NUMBER OF ATOMS
16
ITEM: BOX BOUNDS pp pp pp
0.0 3.2343842636128999
0.0 5.6021184981749866
0.0 22.6690392233608692
ITEM: ATOMS id type x y z
1 1 0.0 1.867372645987712 2.3000029865061156
2 1 1.61719213180645 4.668431895075206 2.3000029865061156
3 1 0.0 0.0 4.8812924793113828
4 1 1.61719213180645 2.8010592490874934 4.8812924793113828
5 1 0.0 1.867372645987712 7.4625842390205728
6 1 1.61719213180645 4.668431895075206 7.4625842390205728
7 1 0.0 0.0 10.0438737318258404
8 1 1.61719213180645 2.8010592490874934 10.0438737318258404
9 1 0.0 1.867372645987712 12.6251654915350288
10 1 1.61719213180645 4.668431895075206 12.6251654915350288
11 1 0.0 0.0 15.2064549843402954
12 1 1.61719213180645 2.8010592490874934 15.2064549843402954
13 1 0.0 1.867372645987712 17.787746744049482
14 1 1.61719213180645 4.668431895075206 17.787746744049482
15 1 0.0 0.0 20.3690362368547504
16 1 1.61719213180645 2.8010592490874934 20.3690362368547504
ITEM: TIMESTEP energy, energy_weight, force_weight, nsims
21 -21636.2855723857246640 1 1 116
ITEM: NUMBER OF ATOMS
16
ITEM: BOX BOUNDS pp pp pp
0.0 3.2343842636128999
0.0 5.6021184981749866
0.0 22.7690399160232496
ITEM: ATOMS id type x y z
1 1 0.0 1.867372645987712 2.3500017173487256
2 1 1.61719213180645 4.668431895075206 2.3500017173487256
3 1 0.0 0.0 4.9312936190684074
4 1 1.61719213180645 2.8010592490874934 4.9312936190684074
5 1 0.0 1.867372645987712 7.5125832438840972
6 1 1.61719213180645 4.668431895075206 7.5125832438840972
7 1 0.0 0.0 10.0938751456037803
8 1 1.61719213180645 2.8010592490874934 10.0938751456037803
9 1 0.0 1.867372645987712 12.6751647704194692
10 1 1.61719213180645 4.668431895075206 12.6751647704194692
11 1 0.0 0.0 15.2564566721391515
12 1 1.61719213180645 2.8010592490874934 15.2564566721391515
13 1 0.0 1.867372645987712 17.837746296954844
14 1 1.61719213180645 4.668431895075206 17.837746296954844
15 1 0.0 0.0 20.4190381986745244
16 1 1.61719213180645 2.8010592490874934 20.4190381986745244
ITEM: TIMESTEP energy, energy_weight, force_weight, nsims
22 -21636.2001597796879648 1 1 116
ITEM: NUMBER OF ATOMS
16
ITEM: BOX BOUNDS pp pp pp
0.0 3.2343842636128999
0.0 5.6021184981749866
0.0 22.8690373743013708
ITEM: ATOMS id type x y z
1 1 0.0 1.867372645987712 2.4000025617647438
2 1 1.61719213180645 4.668431895075206 2.4000025617647438
3 1 0.0 0.0 4.9812925566030498
4 1 1.61719213180645 2.8010592490874934 4.9812925566030498
5 1 0.0 1.867372645987712 7.5625825514413574
6 1 1.61719213180645 4.668431895075206 7.5625825514413574
7 1 0.0 0.0 10.1438725462796615
8 1 1.61719213180645 2.8010592490874934 10.1438725462796615
9 1 0.0 1.867372645987712 12.7251648280217076
10 1 1.61719213180645 4.668431895075206 12.7251648280217076
11 1 0.0 0.0 15.3064548228600117
12 1 1.61719213180645 2.8010592490874934 15.3064548228600117
13 1 0.0 1.867372645987712 17.8877448176983194
14 1 1.61719213180645 4.668431895075206 17.8877448176983194
15 1 0.0 0.0 20.4690348125366236
16 1 1.61719213180645 2.8010592490874934 20.4690348125366236
ITEM: TIMESTEP energy, energy_weight, force_weight, nsims
23 -21636.1226248207240144 1 1 116
ITEM: NUMBER OF ATOMS
16
ITEM: BOX BOUNDS pp pp pp
0.0 3.2343842636128999
0.0 5.6021184981749866
0.0 22.9690380669637548
ITEM: ATOMS id type x y z
1 1 0.0 1.867372645987712 2.4500016330279158
2 1 1.61719213180645 4.668431895075206 2.4500016330279158
3 1 0.0 0.0 5.0312919907427895
4 1 1.61719213180645 2.8010592490874934 5.0312919907427895
5 1 0.0 1.867372645987712 7.6125823484576634
6 1 1.61719213180645 4.668431895075206 7.6125823484576634
7 1 0.0 0.0 10.1938727061725381
8 1 1.61719213180645 2.8010592490874934 10.1938727061725381
9 1 0.0 1.867372645987712 12.7751653607912204
10 1 1.61719213180645 4.668431895075206 12.7751653607912204
11 1 0.0 0.0 15.3564557185060942
12 1 1.61719213180645 2.8010592490874934 15.3564557185060942
13 1 0.0 1.867372645987712 17.9377460762209644
14 1 1.61719213180645 4.668431895075206 17.9377460762209644
15 1 0.0 0.0 20.5190364339358418
16 1 1.61719213180645 2.8010592490874934 20.5190364339358418
ITEM: TIMESTEP energy, energy_weight, force_weight, nsims
24 -21636.0523787941710912 1 1 116
ITEM: NUMBER OF ATOMS
16
ITEM: BOX BOUNDS pp pp pp
0.0 3.2343842636128999
0.0 5.6021184981749866
0.0 23.0690387596261388
ITEM: ATOMS id type x y z
1 1 0.0 1.867372645987712 2.5000032649000642
2 1 1.61719213180645 4.668431895075206 2.5000032649000642
3 1 0.0 0.0 5.0812925947735481
4 1 1.61719213180645 2.8010592490874934 5.0812925947735481
5 1 0.0 1.867372645987712 7.6625842315509054
6 1 1.61719213180645 4.668431895075206 7.6625842315509054
7 1 0.0 0.0 10.2438735614243886
8 1 1.61719213180645 2.8010592490874934 10.2438735614243886
9 1 0.0 1.867372645987712 12.8251651982017504
10 1 1.61719213180645 4.668431895075206 12.8251651982017504
11 1 0.0 0.0 15.4064545280752317
12 1 1.61719213180645 2.8010592490874934 15.4064545280752317
13 1 0.0 1.867372645987712 17.987746164852588
14 1 1.61719213180645 4.668431895075206 17.987746164852588
15 1 0.0 0.0 20.569035494726073
16 1 1.61719213180645 2.8010592490874934 20.569035494726073
ITEM: TIMESTEP energy, energy_weight, force_weight, nsims
25 -21635.9888554346107424 1 1 116
ITEM: NUMBER OF ATOMS
16
ITEM: BOX BOUNDS pp pp pp
0.0 3.2343842636128999
0.0 5.6021184981749866
0.0 23.1690394522885193
ITEM: ATOMS id type x y z
1 1 0.0 1.867372645987712 2.5500030173504364
2 1 1.61719213180645 4.668431895075206 2.5500030173504364
3 1 0.0 0.0 5.1312935055772426
4 1 1.61719213180645 2.8010592490874934 5.1312935055772426
5 1 0.0 1.867372645987712 7.7125839938040492
6 1 1.61719213180645 4.668431895075206 7.7125839938040492
7 1 0.0 0.0 10.2938744820308568
8 1 1.61719213180645 2.8010592490874934 10.2938744820308568
9 1 0.0 1.867372645987712 12.8751649702576644
10 1 1.61719213180645 4.668431895075206 12.8751649702576644
11 1 0.0 0.0 15.4564554584844682
12 1 1.61719213180645 2.8010592490874934 15.4564554584844682
13 1 0.0 1.867372645987712 18.0377459467112757
14 1 1.61719213180645 4.668431895075206 18.0377459467112757
15 1 0.0 0.0 20.619036434938085
16 1 1.61719213180645 2.8010592490874934 20.619036434938085
ITEM: TIMESTEP energy, energy_weight, force_weight, nsims
26 -21635.9315192253270656 1 1 116
ITEM: NUMBER OF ATOMS
16
ITEM: BOX BOUNDS pp pp pp
0.0 3.2343842636128999
0.0 5.6021184981749866
0.0 23.2690401449509033
ITEM: ATOMS id type x y z
1 1 0.0 1.867372645987712 2.6000034310603214
2 1 1.61719213180645 4.668431895075206 2.6000034310603214
3 1 0.0 0.0 5.1812939000360725
4 1 1.61719213180645 2.8010592490874934 5.1812939000360725
5 1 0.0 1.867372645987712 7.7625843690118242
6 1 1.61719213180645 4.668431895075206 7.7625843690118242
7 1 0.0 0.0 10.3438748379875758
8 1 1.61719213180645 2.8010592490874934 10.3438748379875758
9 1 0.0 1.867372645987712 12.9251653069633292
10 1 1.61719213180645 4.668431895075206 12.9251653069633292
11 1 0.0 0.0 15.5064557759390756
12 1 1.61719213180645 2.8010592490874934 15.5064557759390756
13 1 0.0 1.867372645987712 18.0877462449148325
14 1 1.61719213180645 4.668431895075206 18.0877462449148325
15 1 0.0 0.0 20.6690367138905842
16 1 1.61719213180645 2.8010592490874934 20.6690367138905842
ITEM: TIMESTEP energy, energy_weight, force_weight, nsims
27 -21635.8798426768807984 1 1 116
ITEM: NUMBER OF ATOMS
16
ITEM: BOX BOUNDS pp pp pp
0.0 3.2343842636128999
0.0 5.6021184981749866
0.0 23.3690408376132872
ITEM: ATOMS id type x y z
1 1 0.0 1.867372645987712 2.6500024929036714
2 1 1.61719213180645 4.668431895075206 2.6500024929036714
3 1 0.0 0.0 5.2312929950325078
4 1 1.61719213180645 2.8010592490874934 5.2312929950325078
5 1 0.0 1.867372645987712 7.812583497161345
6 1 1.61719213180645 4.668431895075206 7.812583497161345
7 1 0.0 0.0 10.3938739992901823
8 1 1.61719213180645 2.8010592490874934 10.3938739992901823
9 1 0.0 1.867372645987712 12.9751668383231032
10 1 1.61719213180645 4.668431895075206 12.9751668383231032
11 1 0.0 0.0 15.5564573404519422
12 1 1.61719213180645 2.8010592490874934 15.5564573404519422
13 1 0.0 1.867372645987712 18.1377478425807794
14 1 1.61719213180645 4.668431895075206 18.1377478425807794
15 1 0.0 0.0 20.7190383447096168
16 1 1.61719213180645 2.8010592490874934 20.7190383447096168
ITEM: TIMESTEP energy, energy_weight, force_weight, nsims
28 -21635.8333456473737904 1 1 116
ITEM: NUMBER OF ATOMS
16
ITEM: BOX BOUNDS pp pp pp
0.0 3.2343842636128999
0.0 5.6021184981749866
0.0 23.4690382958914086
ITEM: ATOMS id type x y z
1 1 0.0 1.867372645987712 2.7000025514623164
2 1 1.61719213180645 4.668431895075206 2.7000025514623164
3 1 0.0 0.0 5.2812940134163542
4 1 1.61719213180645 2.8010592490874934 5.2812940134163542
5 1 0.0 1.867372645987712 7.8625831284665636
6 1 1.61719213180645 4.668431895075206 7.8625831284665636
7 1 0.0 0.0 10.4438745904206005
8 1 1.61719213180645 2.8010592490874934 10.4438745904206005
9 1 0.0 1.867372645987712 13.0251637054708098
10 1 1.61719213180645 4.668431895075206 13.0251637054708098
11 1 0.0 0.0 15.606455167424846
12 1 1.61719213180645 2.8010592490874934 15.606455167424846
13 1 0.0 1.867372645987712 18.1877442824750553
14 1 1.61719213180645 4.668431895075206 18.1877442824750553
15 1 0.0 0.0 20.7690357444290932
16 1 1.61719213180645 2.8010592490874934 20.7690357444290932
ITEM: TIMESTEP energy, energy_weight, force_weight, nsims
29 -21635.7915810565173168 1 1 116
ITEM: NUMBER OF ATOMS
16
ITEM: BOX BOUNDS pp pp pp
0.0 3.2343842636128999
0.0 5.6021184981749866
0.0 23.5690389885537926
ITEM: ATOMS id type x y z
1 1 0.0 1.867372645987712 2.750002472529872