ITEM: TIMESTEP energy, energy_weight, force_weight, nsims
0 -67609.5446824999953600 1 1 187
ITEM: NUMBER OF ATOMS
50
ITEM: BOX BOUNDS xy xz yz pp pp pp
0.0 10.6838485209078212 0.0370281746787109
0.0 10.6466293699700234 0.0370281746787109
0.0 10.6096648540443416 0.0369008571726523
ITEM: ATOMS id type x y z
1 1 -0.0492487860908 0.0755225129685 -0.0779937682751
2 1 1.73527479995 1.85145474383 1.80980511853
3 1 0.0641859121817 -0.0460749119604 3.5812616034500002
4 1 1.7973676835400002 1.7355677082700002 5.3034860605500001
5 1 0.0373820959774 0.00345588928147 7.1425017083600002
6 1 1.85329268712 1.7750120462400002 8.7998098700800008
7 1 -0.0411618877846 3.46983856608 -0.0399432662425
8 1 1.77567624329 5.30738108147 1.80655643916
9 1 -0.0019676289597 3.5761791592600002 3.53410906994
10 1 1.84248274292 5.2894636892399998 5.3357585391100004
11 1 -0.0303441511558 3.5090712390399998 7.1467095014400002
12 1 1.85432021971 5.3024467475700004 8.8032304260299998
13 1 0.0895384823718 7.0136251809100001 0.0760978211656
14 1 1.8184498757900002 8.7873583310499992 1.80048134506
15 1 0.0126790829715 7.1482221210799999 3.4599485735800002
16 1 1.86766582152 8.7984067423999992 5.3327867719800004
17 1 -0.0141202882921 7.0405869598199997 7.0374108560500002
18 1 1.90917163008 8.8931877365599998 8.8951610500600006
19 1 3.49494838115 0.0453744398307 0.014283791793
20 1 5.3419445146599998 1.8315125586900002 1.69110100525
21 1 3.5132762306399998 -0.0506871231198 3.52661121979
22 1 5.2822608503800002 1.7387837241 5.24772166208
23 1 5.3077121133100001 1.8289044183400002 8.8859073003799996
24 1 3.4959676064999998 3.54421511347 0.0763460873232
25 1 5.3180957546799999 5.3449652006399999 1.83315805185
26 1 3.58056011991 3.47983729019 3.56698842133
27 1 5.2615080795100005 5.3626209733900003 5.3162420606099996
28 1 3.55453877805 3.62404617736 7.0208661446800003
29 1 5.3230181369200001 5.2716854712599997 8.8323741144200004
30 1 5.3942275040799999 8.83764769255 1.84937810747
31 1 3.6338127513299998 7.0455471995699996 3.51720150803
32 1 3.52705734675 7.0722592848700003 7.0865707381499998
33 1 5.4006560265100001 8.8933613138100008 8.8172521591000006
34 1 7.0052420942099998 0.0239934726444 -0.0217816419454
35 1 8.84459176753 1.8439858193700002 1.72662004125
36 1 7.0326381820900004 0.0842935453048 3.5767885687500002
37 1 8.8349395026999994 1.85417382711 5.2851727180500001
38 1 7.10752822239 -0.015799103609 7.1347439214200001
39 1 8.9467596373799996 1.73617457895 8.9256351904199996
40 1 7.1220723318200001 3.5030955637400002 0.0789518210114
41 1 8.8991909800000002 5.3281603925900001 1.74864252258
42 1 7.1136335582900001 3.57923341899 3.4983375239200002
43 1 8.8434998984399994 5.3341470184700004 5.3511425531399999
44 1 7.0653324376700004 3.5242425335599998 7.0046842838399996
45 1 8.9619133305300008 5.3431225085399996 8.8215862071999994
46 1 7.1357528884499999 7.1515603961499998 0.0517677377223
47 1 8.8579741170900004 8.7820595685399994 1.78606811536
48 1 7.1164187656599998 7.0274413282600001 3.5887817339
49 1 7.1376579862099998 7.1186024143199998 7.1039111743900003
50 1 8.9202600733100006 8.9158641798900006 8.8287381822800004
ITEM: TIMESTEP energy, energy_weight, force_weight, nsims
1 -67609.0622260000031950 1 1 187
ITEM: NUMBER OF ATOMS
50
ITEM: BOX BOUNDS xy xz yz pp pp pp
-0.1466370339799277 10.5025808609030006 -0.0733185169899639
-0.0738331434521481 10.5023287989623384 -0.0733185169899639
0.0 10.5020662344408162 -0.0738331434521481
ITEM: ATOMS id type x y z
1 1 -0.0471837326274 0.0565963697652 0.0410284221581
2 1 1.6787247538700002 1.7812332736700002 1.78135312324
3 1 -0.011641841052 -0.0172740909616 3.4760358444700002
4 1 1.7237193868 1.6790413281600002 5.2687742577099997
5 1 -0.00914979702853 -0.0590779696914 7.0168337305700002
6 1 1.6829701826200002 1.70994431145 8.7203476393
7 1 -0.0676756588509 3.53737241804 0.0628790211655
8 1 1.6472375662900002 5.1902203467100003 1.79801885215
9 1 0.00879795985237 3.5263476373999998 3.52570851734
10 1 1.62679735783 5.21263928707 5.2799547574199997
11 1 -0.0666784085739 3.3944439811899998 7.0528054078400002
12 1 1.6118087666900002 5.1344257827100002 8.747575296220001
13 1 -0.102489671422 7.0249101006799997 -0.0188281043451
14 1 -0.0456744728341 6.96797451696 3.4569798452799998
15 1 1.69291485339 8.7741113340600006 5.2744243693400002
16 1 -0.0716842492817 6.9912003629 7.0020594237899996
17 1 1.58371168465 8.6734223016800006 8.7606461678500002
18 1 3.50025466947 0.0331718110197 -0.0337903981093
19 1 5.2619713106099999 1.69644331783 1.68805171661
20 1 5.1540681643699999 1.7288751624800002 5.2310886432299997
21 1 3.4845256371 -0.0991263963938 6.9397359619300004
22 1 3.42703620093 3.4387149556400001 0.00426803971768
23 1 5.1939330455199997 5.2403071151800003 1.74243141557
24 1 3.4474645646700002 3.5063426287800002 3.52304414314
25 1 5.2224270759999998 5.2424468835900005 5.2436701185799999
26 1 3.3971827694900001 3.4966559721400002 6.9480609498400004
27 1 5.1896505883100002 5.2175481250600004 8.8048525152499996
28 1 3.4112242906799999 6.99851614554 0.0217340260722
29 1 5.2270273423100005 8.7365200835600004 1.75433760806
30 1 3.48286533442 7.0243648050500003 3.5415130768199998
31 1 5.1211878084800002 8.7594850692600002 5.2049132933499998
32 1 3.3982213542 6.9413632961499996 7.0415492932500001
33 1 5.1422588875099997 8.6455538508499998 8.8142004044100002
34 1 6.9846606323999998 0.0123340256859 -0.057974556234
35 1 8.7355966364000004 1.71006080496 1.75883669323
36 1 7.00531387895 -0.0142083164197 3.53024225934
37 1 8.6574872861699994 1.7702932246500002 5.2676841432400004
38 1 7.0081983515499999 -0.0605846394149 7.0639806565200001
39 1 8.7332853106999996 1.70436731074 8.7462289313199992
40 1 6.9196403404 3.56303377822 0.0328567644211
41 1 8.7257803345300006 5.2402061281199997 1.7122789332
42 1 6.9826749546600002 3.4706551455 3.55359990485
43 1 8.7203355020500002 5.2054279149399996 5.2695650633
44 1 6.8774959717300002 3.43355804607 7.0593439942799998
45 1 8.6549190535699996 5.14496573024 8.6890430802599994
46 1 8.6433191025799996 8.7212794845099992 1.79133113637
47 1 6.9319282318099998 6.9504391390200002 3.562693644
48 1 8.6286534549400002 8.6722990067399994 5.2615204805599998
49 1 6.8425974027900002 6.9124766754899998 6.97954929503
50 1 8.6649673414800006 8.6944770571600004 8.7842936703899994
ITEM: TIMESTEP energy, energy_weight, force_weight, nsims
2 -67607.9879144999949850 1 1 187
ITEM: NUMBER OF ATOMS
50
ITEM: BOX BOUNDS xy xz yz pp pp pp
0.0 10.8996612379180196 0.0377761402613099
0.0 10.8616902636954774 0.0377761402613099
0.0 10.82397906808791 0.0376462509538212
ITEM: ATOMS id type x y z
1 1 -0.101589091157 0.00721560973153 0.0358760786212
2 1 1.8515932792300002 1.8649381034800002 1.77319291012
3 1 0.0920842680039 -0.075125306131 3.5487530244599998
4 1 1.79000869333 1.7685042332000002 5.5063930322800002
5 1 -0.0666681256429 -0.0484268086391 7.32558244145
6 1 0.088413934406 3.52794586047 -0.0973367965656
7 1 1.95780970387 5.3840381227999999 1.72054615833
8 1 -0.0913043203478 3.66902700053 3.6174344188399998
9 1 1.80875858634 5.52675476813 5.5383259353299996
10 1 0.141826877597 3.72667162016 7.1920286109199996
11 1 1.9731458528700002 5.5243762681800002 8.9425301313199998
12 1 0.147672429035 7.2225420168900003 0.0904148619516
13 1 1.8261899366800002 9.0909938959899996 1.85933446513
14 1 0.153335887299 7.1369031810200001 3.73435937032
15 1 1.782588632 8.9344388673200008 5.3958239213099999
16 1 -0.061226033082 7.2133782801099997 7.1629640623300004
17 1 1.8487431614800002 9.0806531481100006 9.0528189012400002
18 1 3.5168639106600002 0.0480010446231 -0.0909722968736
19 1 5.4530820109700002 1.8279259479500002 1.89724545182
20 1 3.73779453035 0.0553361210237 3.64189336434
21 1 5.4536067954399998 1.75236760835 5.5094648775400002
22 1 3.73476642842 0.0596247811335 7.3254352353299997
23 1 5.38074941066 1.90712033177 9.0175154111100007
24 1 3.70703987528 3.5652686545000002 0.0229078692997
25 1 5.3667004558900002 5.3325524792800003 1.7264603804900002
26 1 3.68162106011 3.6381318600100002 3.5318308155799998
27 1 5.5721905382900002 5.5558982114299998 5.51334419164
28 1 3.6283881353699998 3.76011480122 7.2213204630799997
29 1 5.56203632169 5.4067151820500001 8.9523507275299998
30 1 3.63466730644 7.1325290215999999 0.0221891570896
31 1 5.5063971691500004 8.9645766622800008 1.8789475152
32 1 3.6429740905400002 7.2012932456299996 3.58902147378
33 1 5.4129195050299997 9.0921203394599992 5.3681394300400003
34 1 3.71740010694 7.2788938674899999 7.2643652630300002
35 1 7.2064678517500003 -0.00394009601592 0.0587774535334
36 1 8.9697024190200008 1.73559597336 1.79553793251
37 1 7.2377775229300001 -0.0271423134654 3.5412855613000002
38 1 9.10944635185 1.7375265816800002 5.36501130009
39 1 7.2230142479600001 -0.0543938339335 7.2587497826899998
40 1 9.0867290268699996 1.85874394385 8.9566889783400008
41 1 7.3170563747399999 3.60640662433 -0.0355686776156
42 1 8.9421648517900004 5.44038664174 1.88133528499
43 1 7.1876082735300004 3.65801968793 3.48258171082
44 1 7.3642689814000004 3.5597684520100002 7.1028097986600001
45 1 7.3200538759500003 7.1918837822699997 -0.00518793316733
46 1 8.9427879640800008 9.1452114047300004 1.8502726298600002
47 1 7.3354140250200004 7.3292078319799998 3.6731530158900002
48 1 9.1914509834900002 9.1527815415199996 5.3721886806099999
49 1 7.1555203351000003 7.3073667530600002 7.1206542105499997
50 1 9.0737448455400003 9.0678711243599999 8.93738549407
ITEM: TIMESTEP energy, energy_weight, force_weight, nsims
3 -67608.8816790000009850 1 1 187
ITEM: NUMBER OF ATOMS
50
ITEM: BOX BOUNDS xy xz yz pp pp pp
-0.2932740679598554 10.5025808609030006 -0.1466370339799277
-0.1486955398286647 10.5015621105594922 -0.1466370339799277
0.0 10.5005013498925416 -0.1486955398286647
ITEM: ATOMS id type x y z
1 1 -0.0388709235014 0.00787073124393 0.0224836734904
2 1 1.71674172515 1.6999082801800002 1.7805332621500002
3 1 -0.0554952019349 -0.0970883238843 3.5294159131199998
4 1 1.59392111297 1.6830721295 5.2707728547799997
5 1 -0.108717996548 -0.13670713135 7.0552921072399997
6 1 1.63286317744 1.67491576219 8.7528378071200006
7 1 -0.0384872533335 3.5323960361600002 0.030088136568
8 1 -0.120562535227 3.4329794005799999 3.51560985395
9 1 1.5504818412700002 5.1695004875099997 5.1954233572000002
10 1 -0.166970654525 3.4404917952999998 7.0187797639499996
11 1 1.5029549766800002 5.0763453587600003 8.7990473634100006
12 1 -0.0380245675131 7.0333600193399999 0.0408826519557
13 1 1.63773145183 8.7718452148800008 1.7601265878200002
14 1 -0.179185340842 7.0130832813600001 3.5596930587200002
15 1 1.6082976598900002 8.7070125612599992 5.2262759302599999
16 1 -0.190218317698 6.8778910258900004 6.9803216777600002
17 1 1.55853924549 8.6454591326199992 8.8095520649600002
18 1 3.5239504239000002 -0.00252462027027 -0.0440475030625
19 1 5.1921075627900004 1.75361632272 1.7109044377
20 1 3.4801600500799998 -0.111120860806 3.4633646094800002
21 1 5.1666622132700004 1.72663321869 5.2719163593799996
22 1 3.44731190183 -0.0929974967583 7.0408287166800001
23 1 5.1589608385899997 1.6339261142 8.71879518175
24 1 3.4043819083 3.5262084841300002 -0.0607548507603
25 1 5.1478799188300002 5.1831173260099996 1.7708560001
26 1 3.3541137046 3.42027819651 3.53389647705
27 1 5.0936877104700002 5.2006371367300002 5.2767360895
28 1 5.0541284904500001 5.12828762944 8.7086863491000006
29 1 5.1483447554400002 8.6693467310500002 1.80336765238
30 1 3.39053382563 6.9372556272399998 3.45046159342
31 1 5.0217582720899996 8.7216939478800004 5.2239626698199997
32 1 3.2717230281499998 6.8595180210600004 6.9529195694299996
33 1 5.0353157371400004 8.6675232864700008 8.7625087688600002
34 1 7.0549895379500001 0.0122089885275 0.0374594885156
35 1 8.74000129483 1.77693834749 1.6942075905
36 1 6.9541249866700002 -0.0708479598848 3.4475361537500002
37 1 8.6248637226099998 1.65696658284 5.3119852224799997
38 1 8.6677613580900008 1.6091084732400002 8.7866756727199996
39 1 6.9160397214299998 3.49957770754 0.0190311086465
40 1 8.7022832927400008 5.2563966547099996 1.6929548806900002
41 1 6.9443240497899996 3.4057093883500001 3.49229244065
42 1 8.569354400630001 5.1516878220500004 5.2800332469200004
43 1 6.8347417976599996 3.4097806075200001 6.9439825927300002
44 1 8.5253820828600002 5.17802479774 8.7460859847499998
45 1 6.9161257903099998 6.9710589825799998 -0.0385053384501
46 1 8.5977657001099992 8.7281132785099996 1.7447213022900002
47 1 6.8714246430700002 6.96895238766 3.5239609026699998
48 1 8.5719599326699996 8.71463344959 5.2781200555799997
49 1 6.7773427927299998 6.8688935245099998 7.0138991309199996
50 1 8.5549790121899996 8.5746961916100002 8.7775339362500002
ITEM: TIMESTEP energy, energy_weight, force_weight, nsims
4 -67609.4767230000002200 1 1 187
ITEM: NUMBER OF ATOMS
50
ITEM: BOX BOUNDS xy xz yz pp pp pp
-0.2992601275623413 10.7169505644728994 -0.1496300637811706
-0.1517305860918073 10.7159110202681448 -0.1496300637811706
0.0 10.7148286082611328 -0.1517305860918073
ITEM: ATOMS id type x y z
1 1 -0.0549664008374 -0.0153301352164 0.00400734589949
2 1 -0.0166183907783 -0.0756622491197 3.5968447432600002
3 1 1.61470202882 1.6281222075 5.3432546581200002
4 1 -0.0206977401327 -0.0980337169641 7.1463545881900004
5 1 1.59009185864 1.67978733296 9.0102590276299992
6 1 -0.0792257690156 3.66003957052 0.0175701759518
7 1 1.6209393292500002 5.3424093894600002 1.75217234969
8 1 -0.070056788084 3.6136876129700002 3.6269673409299998
9 1 1.74129579706 5.3436807536700002 5.4079047195000003
10 1 -0.20758433962 3.5668033995 7.0899142284899996
11 1 1.51971659238 5.3103097231699996 8.96382417489
12 1 -0.0408373146705 7.1109400042399997 0.100742961541
13 1 1.71840436651 8.9703822773899998 1.85982101826
14 1 -0.217951597157 6.9883567516699996 3.58871647428
15 1 1.5371171157100002 8.9242824451999994 5.2841763076300001
16 1 -0.116592287232 6.9891800641700002 7.2157020304200001
17 1 1.4494885021799999 8.7097352940199998 9.0228510942100009
18 1 5.3855662357699998 1.78473916565 1.8010255392400002
19 1 3.6091151609800002 -0.0193781892479 3.4756300301800002
20 1 5.1956156954499999 1.66995074483 5.4248266483199999
21 1 3.3730777767000002 -0.0356271278474 7.2099717400800003
22 1 5.2613663808700002 1.5760446282 8.9819450930400002
23 1 3.53003204314 3.60449067404 0.0139207053279
24 1 5.1861674620500002 5.3038921010699998 1.73809842231
25 1 3.42459843445 3.6215766205 3.6348405969900002
26 1 5.2082429607299998 5.3612197750800004 5.4352778921400003
27 1 3.4010148780599998 3.4322842061599999 7.1722619722800003
28 1 5.2166885597999997 5.1849809626600001 8.9409533732300002
29 1 3.4276314536200001 7.1254999228699996 -0.106464680017
30 1 5.2133572190199997 8.8155768402099994 1.68714726931
31 1 3.4583866796499998 7.1700027419600003 3.5382014148100002
32 1 5.1524374521900001 8.7764802318000008 5.2929399659499996
33 1 3.2820031587499998 6.9771176964099996 7.1884220767800002
34 1 5.1531710126199997 8.8385861846299996 8.9315446822299994
35 1 7.17647605311 -0.0405528686909 -0.0947726590401
36 1 8.88052454378 1.6888614795400002 1.69237932012
37 1 7.0360249063899998 0.0377821224083 3.47808694038
38 1 8.8514686827899994 1.69003631167 5.3682469958499999
39 1 8.7311180563500006 1.73212639657 8.8541921915399994
40 1 6.98868943085 3.6139884745400002 -0.0592755033438
41 1 8.9272313086799996 5.4401151727999997 1.75851124229
42 1 7.1417288675300004 3.5628348597100002 3.5242314212700002
43 1 8.8561364620600004 5.2588509102399996 5.4603848785400002
44 1 6.9028764806199998 3.3872176464999999 7.1401571313199996
45 1 8.6474335279299996 5.3266444279899998 8.8970493630099998
46 1 7.0527475707300003 7.13540949218 -0.0279560593218
47 1 8.7656382572799992 8.8745369620099996 1.71453329975
48 1 6.8906606179500002 7.1875247984500002 3.6310946929100002
49 1 8.6612466920400006 8.8216236828699994 5.3424681897
50 1 8.6017971314100006 8.8285252945400004 8.9086717376000006
ITEM: TIMESTEP energy, energy_weight, force_weight, nsims
5 -67609.9996525000051400 1 1 187
ITEM: NUMBER OF ATOMS
50
ITEM: BOX BOUNDS xy xz yz pp pp pp
-0.0748043149400208 10.7169505644728994 -0.0374021574700104
-0.0375414778273486 10.7168862627695134 -0.0374021574700104
0.0 10.7168219610661258 -0.0375414778273486
ITEM: ATOMS id type x y z
1 1 0.00406526380478 0.0722065529895 0.0231194000166
2 1 1.8430603452800002 1.74720545988 1.8608593201800002
3 1 0.0283350757007 -0.0722623583181 3.59820619558
4 1 -0.0899083133804 -0.0389706520823 7.1577975382599997
5 1 0.0332490530909 3.50347645532 0.093650020389
6 1 1.65568941082 5.25432584039 1.83086079215
7 1 -0.115657260392 3.6617156934800002 3.49923634477
8 1 1.6943421862000002 5.3865948499899998 5.2982445986800002
9 1 -0.142727561304 3.6301621034 7.2496031935899996
10 1 1.82411908476 5.3490923069100003 8.9868161087100002
11 1 -0.066000197548 7.2011474379999996 -0.047729509968
12 1 1.8250728083000002 8.8343105590800004 1.7830530493800002
13 1 -0.0308045870989 7.1472165420499998 3.62811791735
14 1 1.7049920195 8.83837332475 5.4227140556600002
15 1 -0.139491276989 7.1128171612299998 7.1152088877899997
16 1 1.64305466687 8.8644716946699998 8.9272841627199994
17 1 3.5286488772900002 -0.0811069010947 -0.0460716176106
18 1 5.3419936536800004 1.86682263069 1.84874395295
19 1 3.5514041766700002 0.00764106886483 3.55248930477
20 1 5.3939373891100004 1.72514844619 5.2825583863699999
21 1 3.5812714898000002 0.0573366901226 7.2419160172000004
22 1 5.4093340992699997 1.7581439994200002 9.0065393478499995
23 1 3.4553592297 3.55855235659 0.0261308269877
24 1 5.2473902243400002 5.4386883913000004 1.76968702903
25 1 3.5844226510500002 3.5166118477300002 3.576451047
26 1 5.2252564557100003 5.3001179931599998 5.3805851568499996
27 1 3.58427047065 3.57938573663 7.18743062267
28 1 5.3602011268099999 5.3641879176899998 8.8868324465500006
29 1 3.4564757135100002 7.1231936525300004 0.00311966687287
30 1 5.3126948864300001 8.8499286497400008 1.8432151445
31 1 5.2348440746399998 8.9505627611400004 5.4139241182899998
32 1 5.3802820134599996 8.8558343497600004 8.8702481645599996
33 1 7.1813288414300001 0.0474860939226 -0.0255756956101
34 1 8.9366804035699996 1.7057642018600002 1.7681995341400002
35 1 7.0996061321699999 -0.0340799045012 3.4858349589
36 1 8.8088897675400002 1.73411479036 5.2628083551799998
37 1 7.2241690087299997 0.0382501664374 7.03901228365
38 1 8.9285134625199998 1.67364198242 8.8717495913200004
39 1 7.0433918811199998 3.61554724177 0.0951739524718
40 1 8.9025666931400008 5.3998872235000004 1.7977211636
41 1 7.0403400628200004 3.64288895359 3.6590423788000002
42 1 8.8655046018100006 5.4324619695300003 5.4062615905899998
43 1 7.1852994998700002 3.58357754595 7.1120474253100001
44 1 8.8410358148700006 5.33081491064 9.0347749586700008
45 1 7.1246518031799999 7.1063960868700002 -0.0951075081757
46 1 8.9498979178900004 8.9073946865700008 1.70035990776
47 1 7.0677562813900003 7.0655573356400003 3.4652908112
48 1 8.9394114197200008 8.9426092754600006 5.3905057189400001
49 1 7.1100382235300002 7.1832370609399998 7.2433049173199997
50 1 8.9621274949899998 8.9422476881200002 8.9207640482400006
ITEM: TIMESTEP energy, energy_weight, force_weight, nsims
6 -67609.0567185000054450 1 1 187
ITEM: NUMBER OF ATOMS
50
ITEM: BOX BOUNDS xy xz yz pp pp pp
-0.3665820823689583 10.5025808609030006 -0.1832910411844792
-0.1865258360896373 10.5009844686121436 -0.1832910411844792
0.0 10.4993250608361208 -0.1865258360896373
ITEM: ATOMS id type x y z
1 1 0.0286445298916 -0.0251489734766 -0.00294611061207
2 1 -0.0415616917715 -0.0492803069426 3.543056038
3 1 1.56639451448 1.61661855966 5.2822975825000001
4 1 -0.181758368568 -0.131592444648 7.0431362386599998
5 1 1.58751110314 1.54177048952 8.7935511648899994
6 1 -0.0552657505154 3.53809122324 0.0464721125843
7 1 1.58061030238 5.2734405067500001 1.7358817604900002
8 1 -0.128666614629 3.38838200474 3.5568773495100002
9 1 1.56593010149 5.1630833998199997 5.2743821413400003
10 1 1.55085659452 5.1179377579100001 8.7461288633900002
11 1 -0.124461170524 6.9863795940399998 0.0142412845125
12 1 1.58621235163 8.6625373528999994 1.77544426725
13 1 -0.193604837465 6.97584142994 3.49553924257
14 1 1.4464835518800001 8.66095696889 5.3116295469299999
15 1 -0.264249067507 6.8446608634699998 6.9682519025299996
16 1 1.4084182250399999 8.6046594060799998 8.7130297411399998
17 1 3.5074286582499998 0.00748697581816 0.0478317751797
18 1 5.17267987456 1.77927581673 1.71914898614
19 1 3.3836850419400002 -0.0391932478551 3.4539304173600002
20 1 5.1314283672599999 1.65711035285 5.2050424987700001
21 1 3.4278796848500002 -0.182485540923 7.05425292403
22 1 5.0134632059299999 1.6097256577200002 8.7488565880400008
23 1 3.4668145309699998 3.5192330789200002 -0.0600151919802
24 1 5.1651745927999997 5.2075850392899996 1.70187129682
25 1 3.4112609269199999 3.42370006732 3.50852060808
26 1 5.0403279218400003 5.0963187886599997 5.2337970003200001
27 1 3.2826595796800002 3.3993489177199998 6.96073648565
28 1 5.0538021769999997 5.1302645792400004 8.7105613498200008
29 1 3.44049543623 7.0096585468999999 -0.0215404152948
30 1 5.1056906096799999 8.7428223158900008 1.7209044732900002
31 1 3.3379243652700002 6.8783400185000004 3.5166281868899998
32 1 4.9594921787999998 8.5991098602099996 5.2558004358500004
33 1 4.9027826569300004 8.5828486478699998 8.7824355294499998
34 1 7.0030079761900002 0.0131471715221 0.0281392410955
35 1 8.7221384840099994 1.6752544115000002 1.75028263474
36 1 6.9197568703199996 -0.0409718080075 3.5185191153300002
37 1 8.6066418268800008 1.69333433182 5.22438330547
38 1 6.9155135848300002 -0.0722301827464 7.0366823035500001
39 1 6.9456916414599998 3.5507601955300002 0.0453161368951
40 1 8.6618245853100008 5.1612178670400004 1.6897582254900002
41 1 6.8794197845599996 3.42488717143 3.54986905003
42 1 8.5432213515900006 5.1402745014800004 5.2967089560799998
43 1 6.7572337452599998 3.3542819038900001 7.0189552431099997
44 1 8.5655377783199996 5.0667778061400002 8.7755175241700006
45 1 6.87708561054 7.00628955009 0.00903466921485
46 1 8.5788589159500006 8.6873642773699996 1.79261696332
47 1 6.80660480296 6.91340189752 3.45857531876
48 1 8.5146084426400002 8.6056281944999996 5.2109158212100004
49 1 6.7968394294400004 6.8917314239999996 7.0177908679599996
50 1 8.4934732498300002 8.5985443333199996 8.7297772145400004
ITEM: TIMESTEP energy, energy_weight, force_weight, nsims
7 -67608.9230195000027400 1 1 187
ITEM: NUMBER OF ATOMS
50
ITEM: BOX BOUNDS xy xz yz pp pp pp
-0.2244343787211915 10.7169505644728994 -0.1122171893605957
-0.1134067708732522 10.716361132191853 -0.1122171893605957
0.0 10.7157609829602426 -0.1134067708732522
ITEM: ATOMS id type x y z
1 1 0.0348482832325 0.0734884747511 0.1056166834
2 1 1.6957656396 1.69709232982 1.83439040278
3 1 -0.133244100222 -0.022253891989 3.6043233601
4 1 1.6465028086 1.77479184741 5.2925186357899996
5 1 -0.179753066241 -0.0718327479905 7.2497941707900005
6 1 1.62136421607 1.70538128425 8.8748050334199996
7 1 -0.0428758806395 3.4668144813500002 -0.0248959274917
8 1 1.71330139922 5.3961381499699997 1.8746773777700002
9 1 -0.093195258673 3.4850580066500002 7.1819741195300004
10 1 1.68588250207 5.2901346052999996 8.9672745496800008
11 1 -0.0856596453197 7.2195583746200001 -0.0303266751579
12 1 1.77771296372 8.9429543791599996 1.7285915514400002
13 1 -0.18622899345 7.0082653988799999 3.6456176166200002
14 1 1.58573961336 8.9537936283999998 5.4266853211799999
15 1 -0.10842243358 7.1696309234299998 7.0507724852100004
16 1 1.62970569043 8.7810192258599998 8.8903203837499998
17 1 3.66643652945 -0.0240220337922 0.0307038699445
18 1 5.3370547174000001 1.7291608620800002 1.71006185755
19 1 3.59149268603 -0.0346577289648 3.654818169
20 1 5.3151862312800003 1.66687017786 5.2585346714099997
21 1 3.5267530526000002 -0.158632605829 7.0967430998300003
22 1 5.2683132120599998 1.76447998845 8.9102345539600006
23 1 3.4416923113200002 3.6656834960400002 -0.0667291867931
24 1 5.1903765951500001 5.2835772562600001 1.69833452873
25 1 3.51223492321 3.62395833761 3.59912514444
26 1 5.1835959811399999 5.3873700511499996 5.3778128784800004
27 1 3.3855755613100001 3.5243661030500002 7.2383293781200005
28 1 5.2260668036000002 5.2226244427399999 9.0299821113699998
29 1 3.4392160178700002 7.1393811707700001 0.0357509933675
30 1 5.2398632085400001 8.8442678131800002 1.84570946111
31 1 5.1993574626200001 8.9213167465099996 5.2823804543200002
32 1 3.3833398985500001 7.0995881250200004 7.0980214901099998
33 1 7.1503560429300004 0.089184272324 0.100900676992
34 1 8.9075003701399992 1.68657424956 1.71561155017
35 1 7.0339945361999998 -0.0705953493156 3.5505505999100002
36 1 8.7694513992599994 1.72768472069 5.4396610361500004
37 1 7.1325212162499998 -0.0253260369688 7.0512407639600001
38 1 8.9140235092799998 1.7402232303 9.0337958507099998
39 1 7.1056396243800002 3.47778252067 0.0997680210558
40 1 8.94893161339 5.4189908358099999 1.69544555957
41 1 7.0333559249700004 3.6402728176700002 3.5006108674199998
42 1 8.8729229127499992 5.2730679757200001 5.3896880848100004
43 1 6.9727439866600002 3.3931358522799999 7.1590284605400001
44 1 8.7984485011799994 5.1725442334 9.0005641327399992
45 1 6.9666634728199996 7.2518619939000004 -0.0685219336055
46 1 8.8439142105100004 8.8674268297999994 1.7033505764500002
47 1 6.9699997066000004 7.17086238026 3.52949520115
48 1 8.8461091477699992 8.80259273293 5.4611643537100002
49 1 7.0673160829799997 6.96963392304 7.2428310693100002
50 1 8.7956023313199996 8.9302653866400004 8.8699229327199998
ITEM: TIMESTEP energy, energy_weight, force_weight, nsims
8 -67609.5673809999993850 1 1 187
ITEM: NUMBER OF ATOMS
50
ITEM: BOX BOUNDS xy xz yz pp pp pp
-0.2244343787211915 10.7169505644728994 -0.1122171893605957
-0.1134067708732522 10.716361132191853 -0.1122171893605957
0.0 10.7157609829602426 -0.1134067708732522
ITEM: ATOMS id type x y z
1 1 1.81148639771 1.72551633371 1.81222163646
2 1 1.78301083757 1.74061066218 5.4149665649600003
3 1 -0.0395627359362 -0.0813003689551 7.2487547419800001
4 1 1.5915308903900002 1.77346527244 8.8593379040200002
5 1 1.73521722526 5.28246338758 1.6822758893200002
6 1 -0.0573041948077 3.62919942105 3.67783026571
7 1 -0.135028612295 3.5090949240299998 7.1814565482799999
8 1 1.53306012557 5.2360489422800001 8.9000567241800006
9 1 -0.166875979311 7.2186355896899999 -0.00317936628364
10 1 1.71132481683 8.8474761050000002 1.74578498994
11 1 -0.123271106862 7.1039811681899998 3.519002328
12 1 1.6834776386600002 8.8920374217500004 5.4472370791599998
13 1 -0.192432440877 6.9624176910699998 7.0919402957499997
14 1 1.5918677184100002 8.7540490750500002 9.0016303509599993
15 1 3.58243846892 0.0938483399394 -1.8431108890700002e-04
16 1 5.4188860935500003 1.76101653213 1.74072286445
17 1 3.4395615717600001 0.0569793466018 3.5206129068699998
18 1 5.2874138656899996 1.80431549962 5.3953899412200004
19 1 3.4212793672199999 -0.181285997438 7.2293988629200001
20 1 5.28545086962 1.6633778881400002 8.8857994041899994
21 1 3.4721329339599998 3.5597112094000002 -0.0168783951243
22 1 5.2080342243500004 5.4300197599400004 1.7705116084100002
23 1 3.4074862320400001 3.48531679314 3.47039670776
24 1 5.1934988668299997 5.3826952797400001 5.36761361718
25 1 3.4726771747099998 3.47420337304 7.1873437873599997
26 1 5.2166207188499998 5.3353653949000002 8.9368739357700004
27 1 3.4197354619100002 7.2007942441199999 -0.00472886532178
28 1 5.3372210499000001 8.8606247692100002 1.8631729367800002
29 1 3.35196295652 7.1729106182400004 3.62667107963
30 1 5.1476435293999998 8.9328901377599994 5.2939502614600001
31 1 3.3424157983599998 7.1222890616500001 7.1606561846299997
32 1 5.2416960959800001 8.8416125152700006 8.9577803854399996
33 1 7.1723390068299997 -9.1449933783800006e-04 -0.0749953248153
34 1 8.9430364975300006 1.8602270151 1.78178137424
35 1 7.1457703084300004 0.0571526176777 3.5494018703300002
36 1 8.7507915499400006 1.79343810313 5.4562736803999998
37 1 7.1616683046700001 -0.174814522975 7.1796938056000004
38 1 8.72460865555 1.75660313155 8.8453591938200002
39 1 7.1985950946799999 3.6483089122400002 0.0226959817619
40 1 8.8407536436100004 5.4082379567199999 1.7105408520700002
41 1 7.1086180249300002 3.47755909317 3.51253215152
42 1 8.72886459229 5.2633104164700004 5.3212668793500004
43 1 6.9410988956699998 3.4667857989100002 7.0550727200900001
44 1 8.7708886800499998 5.2405962335399998 8.9116693943600004
45 1 6.9705225774499998 7.1275243253799996 -0.00928413531564
46 1 8.73044922213 8.8422732964600002 1.68310743238
47 1 7.0451478087800004 7.2050061039699998 3.6742640604600002
48 1 8.7126193138500004 8.8179824144599994 5.3514081718500002
49 1 6.98198511937 7.1307997912900003 7.22062051152
50 1 8.8265604366599996 8.8253153042499992 8.8909279673999998
ITEM: TIMESTEP energy, energy_weight, force_weight, nsims
9 -67607.8095295000025550 1 1 187
ITEM: NUMBER OF ATOMS
50
ITEM: BOX BOUNDS xy xz yz pp pp pp
0.0 11.0507874471811736 0.1133392448928872
0.0 10.9356730484192734 0.1133392448928872
0.0 10.8229291295190428 0.1121594170165311
ITEM: ATOMS id type x y z
1 1 0.0442171052691 -0.0328553887609 0.105114452292
2 1 1.81672933778 1.78242216881 1.85307053906
3 1 0.0866894242838 -0.025121932448 3.4891619126400002
4 1 1.94611534949 1.9001723981400002 5.5347875130200004
5 1 0.201362778247 0.170350446373 7.2976316210999999
6 1 1.83719013187 1.8046080568 9.1036646278699998
7 1 0.149911508851 3.62957133372 -0.0910543850596
8 1 1.90862300419 5.33207118188 1.70609949065
9 1 0.159466760746 3.75342139273 3.6789917604000002
10 1 1.93219790314 5.3822637859000002 5.35204884842
11 1 0.140153405423 3.59623476325 7.1453356915599997
12 1 -0.0288291937168 7.0873038236900001 -0.116558617553
13 1 1.880032962 8.9443425385200008 1.8707519583800002
14 1 0.0508273383779 7.1914964247000004 3.65382087413
15 1 1.95838642681 9.1812628959100007 5.4950251536900004
16 1 0.132003305553 7.3254298870200003 7.1589173853299997
17 1 2.10900127718 9.0792595356600003 8.9165231957100008
18 1 5.4245515587800002 1.87128949654 1.8094974263900002
19 1 3.54095097522 0.01277101625 3.52361129606
20 1 5.4696597053599998 1.8889814782100002 5.5000653917899998
21 1 3.6698438750200002 0.120905049078 7.14532162175