ITEM: TIMESTEP energy, energy_weight, force_weight, nsims
0 -74359.6166073899121280 1 1 399
ITEM: NUMBER OF ATOMS
55
ITEM: BOX BOUNDS xy xz yz pp pp pp
-0.3665820823689583 10.5025808609030006 -0.1832910411844792
-0.1865258360896373 10.5009844686121436 -0.1832910411844792
0.0 10.4993250608361208 -0.1865258360896373
ITEM: ATOMS id type x y z
1 1 0.053833875755391 -0.0392800360496488 -7.6540079693495322e-04
2 1 1.718888356349757 1.6619890824922792 1.7115936718224678
3 1 -0.0137484347904602 -0.0414267713831355 3.5005652694782854
4 1 1.6534607686526114 1.6625127256805966 5.2331407925023284
5 1 -0.1760368486939364 -0.065672147619092 6.943990062177983
6 1 1.5924886483700516 1.5927834155815306 8.754705762034794
7 1 -0.0621173220735243 3.4631850431926528 -0.0533313216465171
8 1 1.613525870963364 5.232260954788238 1.7688611904342926
9 1 -0.1814498402495554 3.4587577705949446 3.4997631210436384
10 1 1.5862985094206378 5.1849604776260705 5.1876482669462316
11 1 -0.2211102334490014 3.3778823466042227 7.0287374642715337
12 1 1.5637293747871788 5.0546942102640093 8.7639976647136316
13 1 -0.1314373273599139 6.9753358281927386 0.0429023420635886
14 1 1.564240419928104 8.7658635760052768 1.7917759673795672
15 1 -0.1378981631052423 6.8909708397992536 3.4899567514368166
16 1 1.5397261041964654 8.6902371485973262 5.246948454889834
17 1 -0.2436789840955009 6.8462380830941206 6.9397630339084904
18 1 1.4115487033548482 8.5875376798982704 8.71260871820337
19 1 3.4809220024506646 0.0469995518464217 -0.0302212572551107
20 1 5.1740438367199593 1.7051886487579172 1.7208981736913812
21 1 3.4344689340198236 -0.0654688196953266 3.5288808992348546
22 1 5.1006184364853482 1.6927193935737774 5.2456979852750889
23 1 3.40168650847298 -0.0862047038223671 6.9622536381213082
24 1 5.0354363992925704 1.5401657076273992 8.7859391542257672
25 1 3.4216269701693936 3.5012521533777022 0.0243972816438649
26 1 5.1386870732625356 5.2347943211772448 1.7305880007900266
27 1 3.3175604467027382 3.4089314454297064 3.4586939611356714
28 1 5.0783753246599899 5.1116101696767267 5.2280129221426162
29 1 3.3229811490935859 3.3762468082285686 7.0520564652316509
30 1 4.9548579472655146 5.1239093260358839 8.6968513311520664
31 1 3.3590978743574889 7.0191154186515288 0.0225724989482916
32 1 5.1260639868143354 8.688895783957511 1.7341913691509054
33 1 3.319318267938078 6.9171509244680802 3.476711852872572
34 1 4.991828104797543 8.6865438185820416 5.2882139521764389
35 1 3.2256831835550379 6.8949447553112596 6.959744299431767
36 1 4.945165460617222 8.62833862822343 8.6970392690706558
37 1 6.9831980438747924 -0.0388046834004494 -0.0550080638587326
38 1 8.7238496536086744 1.6971437637622596 1.7873410524738698
39 1 6.9136618021315482 -0.1033647741344691 3.4708952267888686
40 1 8.6294328838809006 1.6399250187074478 5.2959194068385847
41 1 6.8326644848218638 -0.1152960122897232 7.0178402147908914
42 1 8.5455513896826858 1.5431466741838256 8.730746302245965
43 1 6.946509041356637 3.4458199865488544 -0.0609800799533362
44 1 8.5783929898956668 5.2515419956873038 1.8101088388682932
45 1 6.8587896412280474 3.3850923776579167 3.4869329458192962
46 1 8.5635965509948004 5.159801839220834 5.2890412989912319
47 1 6.801708016301971 3.3998748686482823 6.9700840347516788
48 1 8.4847443374972792 5.0703932096201614 8.688455020900916
49 1 6.8848852507276944 7.0512084946248503 -0.0021922590727026
50 1 8.6315494309656522 8.7138651679645528 1.7374934068825386
51 1 6.7878837021880384 6.9559346548584226 3.517944802251488
52 1 8.518424213808972 8.6658236201099292 5.1872366934038468
53 1 6.695740610627559 6.812799996026918 7.0472708728689213
54 1 8.5063760507990854 8.6528756502324154 8.8122777610733802
55 1 1.7171233013232148 3.4487924666586572 1.7496022784752006
ITEM: TIMESTEP energy, energy_weight, force_weight, nsims
1 -74359.3034163603783830 1 1 399
ITEM: NUMBER OF ATOMS
55
ITEM: BOX BOUNDS xy xz yz pp pp pp
0.0 10.7958549288628554 0.1466370339799277
0.0 10.6461616438524054 0.1466370339799277
0.0 10.5005643653777074 0.1445995332929125
ITEM: ATOMS id type x y z
1 1 -0.0622022474526367 -0.0044562704041093 0.0110245425272101
2 1 1.8357756139620428 1.7569486152854088 1.7072815098845788
3 1 -1.1370066733302489e-04 0.0864157222651689 3.4842237637690734
4 1 1.7885206599194384 1.7866647571493964 5.189174148364538
5 1 0.107591392721388 0.0951462965494344 7.0166556185395947
6 1 1.8500234397990984 1.8647658076159618 8.7845432357718246
7 1 0.1076706827600951 3.5612766791801024 -0.0305377412873915
8 1 1.853412076857393 5.3314658185241832 1.709241965251595
9 1 0.1201916641926298 3.544157043100642 3.5265578390645298
10 1 1.956182859504644 5.3012799359201424 5.2191175577088496
11 1 0.0900486728464607 3.6141763758114688 6.966452420308725
12 1 1.8974996101644896 5.3318552716777941 8.7074281411289274
13 1 0.0715209251905692 6.9632227079091198 0.0471454338876728
14 1 1.9094330451298784 8.7677007386001868 1.7030560827839508
15 1 0.1562277630694373 7.1098751452598084 3.508168200691444
16 1 1.891153404987104 8.769527363703654 5.2984629722229526
17 1 0.1614222515495118 7.139727567620553 6.9687667446948538
18 1 1.9959368018867804 8.8099130873524132 8.7766184598452758
19 1 3.4422813900281408 0.0625235167191211 0.0196255547988909
20 1 5.31601352159967 1.7590425891972712 1.693323109673682
21 1 3.5331784972291604 0.0312113645441922 3.4503825449323338
22 1 5.3863761118054781 1.848754700804211 5.1918801438014963
23 1 3.5942904837502732 0.0602597331246276 6.9489091274234882
24 1 5.3803914278381227 1.8664001537480888 8.7404104138005804
25 1 3.5615030187101456 3.5361318422394824 0.022394553622041
26 1 5.3845719197977742 5.2231153945165767 1.782945426532181
27 1 3.5877586959294746 3.5524625818003162 3.4742324767754158
28 1 5.4199256286950819 5.3616848291512165 5.2135438581437068
29 1 3.6782283528954354 3.5571915884870644 6.9656018745951292
30 1 5.4453379664563517 5.3935810252004277 8.7471360252766034
31 1 3.62753380176193 7.0248535779738832 -0.0200907298002772
32 1 5.369325291500922 8.8108702987223886 1.8094204994666082
33 1 3.6938901409417332 7.0945699713856572 3.5167713130759984
34 1 5.3907139394274468 8.8294970332816618 5.2884328331411439
35 1 3.7496044813751582 7.0654968070982278 6.9906194691956412
36 1 5.4838459215572134 8.8941627403959664 8.7183424277303008
37 1 6.9507307890671068 0.0206817097596049 -0.0078596724274852
38 1 8.8551365577584082 1.820267813122126 1.7666905528945764
39 1 7.0445989795094679 0.0435062808014031 3.5147237030247496
40 1 8.806372160094755 1.8488993488048136 5.2801699390420281
41 1 7.0605798167572997 0.0558649451145482 7.0125950502995034
42 1 8.9071300384230022 1.862838707201204 8.737257094321656
43 1 7.0605894197774077 3.4895393470463834 0.0036951486001764
44 1 8.8157037154041672 5.2591095167128588 1.7834043011949482
45 1 7.0748106827999253 3.5267864335532968 3.495979145576114
46 1 8.87185935536602 5.2950834264003009 5.2350133120451581
47 1 7.1001354115332136 3.5748276587906914 7.0332265591645982
48 1 8.975957587842517 5.3228353173223138 8.7724665366952036
49 1 7.1406439580192505 7.0265666421899189 -0.0550754600964061
50 1 8.8692117716415152 8.7724368209533808 1.7414062439591834
51 1 7.2010423066962437 7.09618062852865 3.469850591265744
52 1 8.916230860485479 8.8248033590749718 5.2270811857235522
53 1 7.2490001572910457 7.0366131323176662 6.9691773167615398
54 1 9.0537795251198077 8.9139002796459544 8.7303046706553396
55 1 1.7664853681586258 3.4791952954881672 1.7181065416888466
ITEM: TIMESTEP energy, energy_weight, force_weight, nsims
2 -74359.0058980389437740 1 1 399
ITEM: NUMBER OF ATOMS
55
ITEM: BOX BOUNDS xy xz yz pp pp pp
0.0 10.9060600081487724 0.1481339182991867
0.0 10.7548386403276642 0.1481339182991867
0.0 10.6077550914534626 0.1460756186179059
ITEM: ATOMS id type x y z
1 1 -0.0079151758003853 0.0112157480424865 -0.0459803752194142
2 1 1.7950321244476666 1.8557052979530958 1.8086667956641992
3 1 0.0672795848029289 -0.0347482865065757 3.477206207345808
4 1 1.935308022715972 1.7682961276009864 5.2653003227856417
5 1 0.1782541618629908 0.1009003232505112 7.1530192917178805
6 1 1.835973560048014 1.8284778255030736 8.8351546631002034
7 1 0.0078201281703147 3.59618912277227 0.0098514221534328
8 1 1.783799235620693 5.4082692820561045 1.7761625125129676
9 1 0.0819493813205166 3.6355218307953008 3.53435973100305
10 1 1.9460520851940992 5.302844238494199 5.2558254759379564
11 1 0.07484665738996 3.6132699190838418 7.0562712614062795
12 1 2.0011981902596694 5.502111482807659 8.8357253603241244
13 1 0.0919581289310614 6.9933451005565086 0.0233222103440696
14 1 1.9030469553360556 8.8038399521739734 1.810870026396694
15 1 0.0759846559276687 7.0637110713918645 3.4894719545580554
16 1 2.0193633142116236 8.9311559034895484 5.3227052502385517
17 1 0.2291028785938172 7.1152109078312114 7.1397033767515783
18 1 1.9453707903825548 8.9191308953305626 8.8665769552321088
19 1 3.605322131256525 0.0573241804646328 -0.0560269800665298
20 1 5.2816370172772072 1.7383130694616098 1.8386421900016284
21 1 3.649544866210968 0.052221184242306 3.4734234818801952
22 1 5.3428785059087485 1.7959450134620492 5.2352018784891526
23 1 3.643046043534325 0.087618808537502 7.1140082115935508
24 1 5.5068793526449476 1.8676463617430444 8.8722818059202916
25 1 3.5178344091479202 3.5331305804814668 0.0801840207362967
26 1 5.4549402754238986 5.4136702562172463 1.8441147308533098
27 1 3.6168432201195442 3.6298977915021378 3.5958125777988578
28 1 5.383099892451857 5.4424711432054087 5.2967862614480943
29 1 3.6010920239724432 3.6845598042794824 7.0513450199418077
30 1 5.5279722482034216 5.4461807203278356 8.7638259963142532
31 1 3.652459619606736 7.0045606395203093 0.0107615675402795
32 1 5.3796216973258151 8.7958762585568326 1.7500313686206814
33 1 3.7651258335462292 7.1018587876610422 3.5087844334775552
34 1 5.5205180216481464 8.9687061490881756 5.3460094273989656
35 1 3.751218613466501 7.1401853619955542 7.075402347713716
36 1 5.6044286281485186 8.9540264974274724 8.8416306975835362
37 1 7.0205862569339956 0.0757642757383006 -0.0557999741075727
38 1 8.8636392861409128 1.760063511381039 1.841826638080083
39 1 7.1310437909835658 0.0088602411919623 3.5972435639606948
40 1 8.9293957122464658 1.7559116809622264 5.2454404837034234
41 1 7.1116426636919474 0.0902825147061924 7.0121514864299055
42 1 8.9873838699631036 1.9432616116646594 8.8527306525112338
43 1 7.1575699353249274 3.4924387797347852 0.0255031647908724
44 1 8.913385645450262 5.3742469630936594 1.7586735066936886
45 1 7.2564265150335397 3.5647970990204394 3.5273236070508892
46 1 8.950297676234296 5.4525331049182252 5.2606223027903108
47 1 7.2662874705266063 3.6652522879374888 6.999298069585592
48 1 9.0076837279417603 5.3856780056871499 8.9178357493850306
49 1 7.2397566547404333 7.0134047733661022 0.0518719223972074
50 1 8.929392723298255 8.8721165744184542 1.8035283990978992
51 1 7.1600434411657661 7.1968196506019488 3.604676417953276
52 1 9.0575214956099952 8.8560346948216698 5.2190473282603778
53 1 7.3432541083206387 7.2436185936549631 7.0174627894041972
54 1 9.1663310092538009 9.0204885240118919 8.8533586316126468
55 1 1.9001276159149152 3.5314726728506916 1.7010246008736752
ITEM: TIMESTEP energy, energy_weight, force_weight, nsims
3 -74362.3447840550875290 1 1 399
ITEM: NUMBER OF ATOMS
55
ITEM: BOX BOUNDS xy xz yz pp pp pp
-0.3740644425023621 10.7169505644728994 -0.187032221251181
-0.1903330420250387 10.7153215879870984 -0.187032221251181
0.0 10.7136283097979118 -0.1903330420250387
ITEM: ATOMS id type x y z
1 1 -0.0156441048226426 0.0427179338405563 -0.0088794551431605
2 1 1.7579920388639668 1.7594695884520462 1.7000556820040286
3 1 -0.1236845958029833 -0.0481751866731434 3.4668133425020282
4 1 1.7339582564507424 1.7475830604976634 5.4557105864638702
5 1 -0.2231025890445506 -0.1299735761822955 7.2371105627728696
6 1 1.5112155879731418 1.5431547559941118 8.9911715023609276
7 1 -0.1234551822390075 3.5124339021501322 -0.0663302155916208
8 1 1.5982480315062506 5.4004677046817245 1.7938224283342106
9 1 -0.1573433098676969 3.4973966894543428 3.5949526225385342
10 1 1.5742023575303854 5.2840756492864989 5.3820458209313618
11 1 -0.2775073725608442 3.5279296309851148 7.231685181396788
12 1 1.6340633179960252 5.1388570930569317 9.0050188669513407
13 1 -0.068861168609226 7.109043996759393 -0.0557494362728644
14 1 1.6115819881031992 8.8007425383577402 1.8249423044856808
15 1 -0.1842868519530729 6.9779764395705106 3.5178059278053416
16 1 1.568429672048817 8.8941681398518408 5.3798184576057544
17 1 -0.2916380318153166 6.9425538818685526 7.1811082848718941
18 1 1.5653334713538488 8.8338016050141964 9.0201282969566492
19 1 3.4929909584419772 -0.0966335652583668 -0.0277686532161652
20 1 5.3618116717333076 1.737312075443004 1.8257736820425212
21 1 3.5316936814016424 -0.0554295752084388 3.477133780652856
22 1 5.1448446887332482 1.7445845647620526 5.292999499234476
23 1 3.3754895656231052 -0.2058191490017597 7.1046194069169228
24 1 5.2135437651456043 1.519883242123253 9.0197597481427927
25 1 3.5812622634301406 3.639414222002491 0.0941985055510672
26 1 5.2353852693452554 5.4154611618430853 1.7501215384585452
27 1 3.4735935733951814 3.4453448617281653 3.5930230980799398
28 1 5.1259599243762919 5.3593240879383579 5.256826004609275
29 1 3.466730665543067 3.3500325691913196 7.2457511040047216
30 1 5.1175698904342424 5.1673266548099797 9.0170202733839755
31 1 3.5146722711388084 7.1506747416708345 -0.0932417785430022
32 1 5.1258832923668818 8.82728038246041 1.689940945516748
33 1 3.3112220688862935 7.1465708631820784 3.6101134779597298
34 1 5.0312062418534467 8.856887431538219 5.2746866943645383
35 1 3.3187124479352588 7.108239581935611 7.2346057164740385
36 1 5.0612260575744914 8.82036135650125 8.8242253178606714
37 1 7.1853284622142333 -0.0455376612040698 0.0450379506887285
38 1 8.8529987864760128 1.6799004622402292 1.830115915596482
39 1 7.0418703081604521 -0.0836216620795601 3.6533793945260178
40 1 8.8507539064340276 1.6948444036005432 5.4161430143901237
41 1 6.9265612428616992 -0.1193881417803034 7.0865765854803922
42 1 8.6457704363872542 1.6236188715003058 8.996142625896674
43 1 7.1464729457698919 3.6391672785038512 0.0808964646416221
44 1 8.781583223487452 5.2455803799717398 1.7221996803575498
45 1 6.9605743541613734 3.4330151222459091 3.541552684954009
46 1 8.6984004255533272 5.2554223965573117 5.2606582694556883
47 1 6.919354025194366 3.3418906323719102 7.218452779071356
48 1 8.5957493850960224 5.1829531001686062 8.833946864188981
49 1 7.0269304724939055 7.2498751737684755 0.0320862454250138
50 1 8.7156693417532286 8.8385730051272162 1.7216811407473556
51 1 7.0157475851636155 7.1739488996277379 3.5222724394476966
52 1 8.7374411031893882 8.7484190920487048 5.4321898868725383
53 1 6.9398972188622166 6.9870987243950928 7.0843524362432779
54 1 8.6856826670229382 8.7033403915400864 8.9713952158638702
55 1 1.763857363998223 3.4543127363517786 1.8506218001814352
ITEM: TIMESTEP energy, energy_weight, force_weight, nsims
4 -74364.5728023771005180 1 1 399
ITEM: NUMBER OF ATOMS
55
ITEM: BOX BOUNDS xy xz yz pp pp pp
-0.2992601275623413 10.7169505644728994 -0.1496300637811706
-0.1517305860918073 10.7159110202681448 -0.1496300637811706
0.0 10.7148286082611328 -0.1517305860918073
ITEM: ATOMS id type x y z
1 1 -0.0575332862041088 0.0715543652424238 0.0957305647176483
2 1 1.6939227318770956 1.6779795684570026 1.787644861276514
3 1 0.053257332786201 -0.0255644735417757 3.5018877891721356
4 1 1.7646782064604326 1.6210777433029224 5.3050273640990566
5 1 -0.1916385881638841 -0.0284515517204319 7.2201733283995733
6 1 1.609148864940293 1.7262400723491982 8.858208109301799
7 1 -0.0713782136742287 3.597684914376977 0.0743137652954559
8 1 1.7483535382455948 5.4127039108258561 1.8456838733988824
9 1 -0.0868787428135572 3.586291765479286 3.4733949169370476
10 1 1.535861491144072 5.353634385397549 5.2986595414571669
11 1 -0.0599888645978195 3.3733001529367091 7.2129311757432504
12 1 1.5016987344275134 5.2984873494485454 8.8978026154579056
13 1 -0.1832613069278915 7.1690492372006176 -0.0817091400008778
14 1 1.5848925262339186 8.9932792411252756 1.8395967792665292
15 1 -0.1607704747393913 7.1633560091688846 3.5414308641509238
16 1 1.6193468773869084 8.8775838495271612 5.3093561548567943
17 1 -0.1413339079254699 7.0196839654451857 7.1648505253294008
18 1 1.570771315555334 8.8360641793384964 8.9022224822588142
19 1 3.6120505612636022 -0.1067670877476416 0.0663022879450591
20 1 5.3415037979423685 1.8186867267921972 1.7686688998112838
21 1 3.5559637561778788 -0.020886209428437 3.538383566894734
22 1 5.2335297554849518 1.7253405382961622 5.2794360674510852
23 1 3.5655744141822612 -0.1491659709234986 7.0594969730386721
24 1 5.1836645414509643 1.601218758395858 8.8999691538024966
25 1 3.556189099390446 3.4828569510814198 0.085854707189414
26 1 5.1904286081090447 5.266430321320061 1.7130525104372436
27 1 3.5567582383582642 3.4528319329603314 3.5662924809706716
28 1 5.2594185029777361 5.2520846196579649 5.2831016103179716
29 1 3.5076033207212354 3.4885088648239756 7.2253550195145291
30 1 5.1923819731486365 5.2210413936543443 8.8221998562808768
31 1 3.4940143142106398 7.1513214241429264 0.0545363346503275
32 1 5.2741402728412972 8.9705698596278492 1.7814956211382332
33 1 3.4729905203800948 7.1319234384335593 3.5010681047836032
34 1 5.0701338507655489 8.7789476358873878 5.3145399889374705
35 1 3.4171001670378578 7.0821591228537297 7.1851079802961788
36 1 5.0173291300690268 8.8539723335804474 8.894220648254164
37 1 7.185840939061162 -0.0902273204764523 0.0493685728125632
38 1 8.8434664902011484 1.7326723563406004 1.8408536286622782
39 1 7.0942101420586674 -0.1556372646471064 3.5030878499762612
40 1 8.764656810730747 1.8155975121097104 5.3041005314244414
41 1 7.005241827795345 -0.145307950283784 7.1686725046939666
42 1 8.705961964418858 1.5550237999991936 8.8682436177762956
43 1 7.0861136539790008 3.4954318894488616 -0.0399009502543036
44 1 8.7395774474988634 5.3305724925666054 1.6952733953275562
45 1 7.0697300285697295 3.5510606206657226 3.5008955960430108
46 1 8.6767498441902156 5.3498566647068042 5.3428024923574809
47 1 7.0869751940566923 3.4055587114890331 7.2103264009085821
48 1 8.7323865162741328 5.2578258522538946 8.843618798668791
49 1 7.0287088026211793 7.2068038270105745 -0.0354178659646072
50 1 8.750513248870087 8.8171414792538948 1.6829770580167156
51 1 6.8929834055590282 7.1090977792506713 3.6246207934654628
52 1 8.8384725590569762 8.8030624993363062 5.3943151023745584
53 1 6.8989173547378818 6.9645287889573328 7.156856191704776
54 1 8.7568629514698646 8.8902949307757666 8.891727307637023
55 1 1.692016660123049 3.4543031716802366 1.8300541529080118
ITEM: TIMESTEP energy, energy_weight, force_weight, nsims
5 -74363.9547783791385870 1 1 399
ITEM: NUMBER OF ATOMS
55
ITEM: BOX BOUNDS xy xz yz pp pp pp
-0.2244343787211915 10.7169505644728994 -0.1122171893605957
-0.1134067708732522 10.716361132191853 -0.1122171893605957
0.0 10.7157609829602426 -0.1134067708732522
ITEM: ATOMS id type x y z
1 1 0.1014473052373676 -0.067376744175593 0.0682261786024096
2 1 1.7720568049135992 1.7639827847246704 1.7940894973004136
3 1 0.0055060147486749 0.0534406251860889 3.585739015825007
4 1 1.7665969585607564 1.781338415548241 5.3225977768676272
5 1 -0.0917508091690636 -0.0271967402621456 7.1817276570302164
6 1 1.5898193378025904 1.6754622702083294 9.013225875922144
7 1 -0.0659373969882556 3.5107489422961474 -0.0246483934130052
8 1 1.8173818881392736 5.408636427302695 1.8137400597909662
9 1 -0.1072275552131184 3.569669864743207 3.5986622235704568
10 1 1.7629274858406114 5.35378902756477 5.4306919442071395
11 1 -0.0582854314078013 3.514984297218578 7.2089296162854604
12 1 1.6390320855623704 5.256306668403858 8.8422837704175682
13 1 -0.1160135378829327 7.250744554173223 -0.0269308505023757
14 1 1.7828933338278404 8.8370846410160944 1.6886571249890678
15 1 -0.0847719846844803 7.1638713969667842 3.5852535918524784
16 1 1.6052582844203912 8.9679967522407438 5.4185156250022022
17 1 -0.2168034655934446 7.0317459095416792 7.0495326716639264
18 1 1.6904893362453612 8.796628394474988 8.9985924327238128
19 1 3.565296931908855 0.0508641746666171 -0.007294218501101
20 1 5.3587179646605421 1.8673452725483468 1.8072559528201768
21 1 3.4975739413650754 -0.1298076501431835 3.6298472311830682
22 1 5.3336065077969046 1.686729644324749 5.4229873120603909
23 1 3.4590904848380108 -0.0580328796924934 7.1573064377500497
24 1 5.2794539084473842 1.7676361717542738 8.9607422217797996
25 1 3.5683485958776462 3.6146592293756488 -0.0618256545672874
26 1 5.2991848962194999 5.2501729712175918 1.7845353248080066
27 1 3.479406161161609 3.640959358747697 3.6157774370124418
28 1 5.3087256967633012 5.2838990248982345 5.2800229869062276
29 1 3.462257726817927 3.54539892516586 7.106609100963567
30 1 5.2334093854665431 5.2701080881100877 8.8230618383663356
31 1 3.4621720126601724 7.1754543960178561 -0.078956941650746
32 1 5.3488024531366874 8.970528098027085 1.748388919860285
33 1 3.4866953221783424 7.2091567579716598 3.5198252984427204
34 1 5.3079980491646923 8.8478971112776144 5.2865038791487216
35 1 3.4588319080938198 7.0565599831362338 7.2096915068913488
36 1 5.11529569244213 8.8200532607880824 9.0169228134612638
37 1 7.1594870880518986 -0.0792258290755507 0.056075577223831
38 1 8.914585085243182 1.6762271090312428 1.875342826529808
39 1 7.0529534964819778 -0.0801453815263115 3.4853034028600152
40 1 8.836720414293744 1.7039966352426992 5.3604362004745587
41 1 7.0227520912330457 -0.1038372222381659 7.1494528565256372
42 1 8.7603404199456438 1.6866420754561646 8.9863453894963872
43 1 7.0585375669858719 3.552836112674421 -0.0249270031985621
44 1 8.8289118172646326 5.2674741246381603 1.8499871928919276
45 1 6.9715754634397574 3.5684926201939442 3.6157292160880178
46 1 8.8509499815174256 5.219511540533456 5.4642472781491814
47 1 7.0536676501837965 3.4677139011051832 7.1292890090840011
48 1 8.8141868581051722 5.2731966424408725 8.8680112409615576
49 1 7.168535908682987 7.1768587332736393 -7.3081489903788857e-04
50 1 8.8458227419047458 8.9323402585213412 1.6915911003462024
51 1 7.0817852736847558 7.1313849589326601 3.494303570509604
52 1 8.7258474319170904 8.8389869977649482 5.2530374860228388
53 1 6.9530053205122098 7.0634916397536021 7.2452035387888794
54 1 8.759459186439246 8.8233656803921488 8.871516366379085
55 1 1.7469785406353346 3.5323735568266974 1.867967168245236
ITEM: TIMESTEP energy, energy_weight, force_weight, nsims
6 -74356.7426014636646390 1 1 399
ITEM: NUMBER OF ATOMS
55
ITEM: BOX BOUNDS xy xz yz pp pp pp
-0.1496300637811706 10.7169505644728994 -0.0748150318905853
-0.0753401624682445 10.7166933576593522 -0.0748150318905853
0.0 10.7164254338952408 -0.0753401624682445
ITEM: ATOMS id type x y z
1 1 -0.0743366977520691 0.1037010103044749 -0.098147453978873
2 1 1.6792434679558124 1.8124657808987422 1.7839933479717558
3 1 0.0211178722831444 0.0610287335540395 3.623474203555134
4 1 1.7490192515066222 1.8405407826329082 5.3995266802803723
5 1 -0.089410647315256 -0.0010541551657361 7.0939596459734364
6 1 1.7995743834245832 1.7506623130597798 8.9484724315129398
7 1 -0.0815948398650055 3.5771192854547178 -0.023261073046813
8 1 1.7065621242711566 5.2486090863901778 1.8044842250439064
9 1 0.0313778944675178 3.4851578913610602 3.533859167506729
10 1 1.725439096333358 5.3713779818281067 5.3331127052963501
11 1 -0.1411679842462303 3.6053939930615338 7.1666630910446116
12 1 1.7460561330656982 5.1906713098836628 8.90704916064076
13 1 -0.0504495020008609 7.1629099638006411 0.0236768703536481
14 1 1.6618444239186492 8.9544774263235354 1.8585400182175612
15 1 -0.0801876458313625 7.092239417458206 3.5658594854948836
16 1 1.6630530796121008 8.8950160210903046 5.4082659252217154
17 1 -0.0210534624114321 7.0303102767368797 7.2294088336026112
18 1 1.7361882208927788 8.8474244358090282 9.0256714170536316
19 1 3.6204752262587082 0.0775504351791419 -0.0096254933247247
20 1 5.3596610251335344 1.8087341528671408 1.7390357999914786
21 1 3.5469326603134728 -0.063970845700162 3.5722657646192656
22 1 5.392051374011511 1.6750102648073658 5.2880115572152589
23 1 3.4733404771162486 -0.1498400842021816 7.0396423720191956
24 1 5.2955945222721441 1.661819905471239 8.8541078757122308
25 1 3.6466449565592618 3.6151894995477344 0.0122231548499009
26 1 5.3055476545974791 5.3332454970481589 1.8597820519253496
27 1 3.5213287377409706 3.4839302959545356 3.6083233212766928
28 1 5.2990110692693389 5.3466129415585577 5.4211963641502523
29 1 3.3984851155552458 3.4325970848241965 7.1828030993906023
30 1 5.2619547831728406 5.2464493165243349 8.957843945554881
31 1 3.4231636405160435 7.1078012813217306 0.0833116346081884
32 1 5.3798152950582914 8.9233168261543056 1.7052962061554024
33 1 3.472841945766616 7.0255914517284852 3.5992111447302522
34 1 5.3148226366545899 8.7962438371819296 5.3428196434543729
35 1 3.4199813515710145 7.1851154113096714 7.0689968045677203
36 1 5.218569853561994 8.7674734633882832 8.9830114706863836
37 1 7.097039622111903 0.0469653853998345 -0.1044958644059125
38 1 8.9008004954093262 1.8630479440675122 1.7531386158624844
39 1 7.0797251567362176 -0.1015529115235918 3.626946325395716
40 1 8.948746930047987 1.7089739560212218 5.2942120809713114
41 1 7.115794402688846 -0.0640884102534705 7.1007817224046539
42 1 8.7530585106928278 1.6312406596236944 8.8523118028095098
43 1 7.2188119472901589 3.5078060760657306 -0.0281702675380804
44 1 8.780399246076156 5.25444249028555 1.7375215690776692
45 1 7.1951257831026725 3.5657378216769038 3.5472675590096174
46 1 8.9628037618547118 5.2441809697878954 5.3214575209944464
47 1 7.1508453094763009 3.5476779234805372 7.1700516247668089
48 1 8.919311345424319 5.3895602942336858 8.9308267653934888
49 1 7.1779596402220571 7.149294334946628 0.0116444678764706
50 1 8.9276903655819932 9.0222740056453592 1.8229325514283572
51 1 7.1073987738663034 7.0197589411573889 3.4834298126999044
52 1 8.9075477114438026 8.8075023673963902 5.434188958346307
53 1 7.0449753680944074 7.0156032819558254 7.1906057287490191
54 1 8.8477127499390704 8.7835760287377198 8.9088238006926144
55 1 1.6716555982061248 3.5299807933470296 1.8084021501825388
ITEM: TIMESTEP energy, energy_weight, force_weight, nsims
7 -74365.1626863040814875 1 1 399
ITEM: NUMBER OF ATOMS
55
ITEM: BOX BOUNDS xy xz yz pp pp pp
-0.0748043149400208 10.7169505644728994 -0.0374021574700104
-0.0375414778273486 10.7168862627695134 -0.0374021574700104
0.0 10.7168219610661258 -0.0375414778273486
ITEM: ATOMS id type x y z
1 1 -0.0383964296318168 0.0747231068248707 -0.0815743054032431
2 1 1.7754391940121756 1.689130088273152 1.8894721631336076
3 1 -0.1032613657421264 0.0562542830914575 3.540153171012936
4 1 1.6822268726474932 1.7618578828968838 5.2627258356536837
5 1 -0.0146859483855679 -0.0932599953077375 7.2192156449208183
6 1 1.6926386269976372 1.759981842853662 8.8428956198692408
7 1 -0.1082484941218829 3.5722386583840966 -0.0334589898446446
8 1 1.8035225801354688 5.3753972955520579 1.8114022585116332
9 1 -0.1117467019096458 3.5992033015674908 3.6527344573961318
10 1 1.7229115097092602 5.3521774280527419 5.462569916537058
11 1 -0.098965190480191 3.4484992866167304 7.1813252491952726
12 1 1.7285094993521114 5.3601667566664038 8.9808061149574172
13 1 -0.0148014946884519 7.0432236344773393 0.0482664227482496
14 1 1.7762089395330334 8.9601556729650368 1.708730817395835
15 1 -0.1025215925419683 7.2175061445971629 3.5792577826666698
16 1 1.8416966281668602 8.8584155603949988 5.3723739278661365
17 1 -0.0730771225213779 7.1515847335353557 7.2387170458433712
18 1 1.71114260509709 8.8334945403306176 9.0040712637526958
19 1 3.5025977070313968 -0.0634991940850911 0.0732805568875741
20 1 5.383195442171882 1.727681334056524 1.8731257945963934
21 1 3.4675051340819102 -0.1062948453338785 3.6107330887663212
22 1 5.2452473709129661 1.7372333167061962 5.3325855829712854
23 1 3.452529813230993 -0.0198928040739545 7.0388911835573316
24 1 5.2971646605902487 1.7230217390468264 9.0077085531262817
25 1 3.6424619210178674 3.6005534705549992 0.035453390411599
26 1 5.3891786718397006 5.4398391566480191 1.686844923586946
27 1 3.531855227629896 3.650989713702161 3.5376261443945164
28 1 5.3048609605437065 5.3506229890673227 5.3498214477312685
29 1 3.5950869111804132 3.4416419614074254 7.0878992103852871
30 1 5.2531390960032081 5.3451754518245185 8.9301712745557716
31 1 3.5086107737184126 7.039279378000149 0.0086216832676777
32 1 5.2667514267542659 9.004499898614899 1.8118598668093704
33 1 3.6210616309465632 7.1370030690232556 3.553856771254551
34 1 5.2024772000104154 8.9448333347878002 5.3298442199136451
35 1 3.5085876654652296 7.1443631385194149 7.1091613851560416
36 1 5.3214697711634003 8.7939094569954222 9.0099183618146537
37 1 7.0648392490928496 0.0732745198085519 0.0278530202768109
38 1 8.9959853335454642 1.7500213318435612 1.7661708397427572
39 1 7.1203442736266141 -0.0955168995721349 3.4785785987534342
40 1 8.8195790262218132 1.7856662085053678 5.3417441790192131
41 1 7.0300803516678592 -0.0437937108066439 7.2484843573786862
42 1 8.8811981559522924 1.658714910978199 8.8315357885905108
43 1 7.144115878260938 3.6010231694077156 -0.0380554347837458
44 1 8.8749497502071684 5.2497745229368658 1.712730335351705
45 1 7.1526748727691576 3.4861334686738954 3.5081012998917794
46 1 8.8141751329317622 5.3902577214806344 5.4619633444140598
47 1 7.1320405296277345 3.629978501127896 7.1735244744898124
48 1 8.9024025867109948 5.2429636572461398 8.9361448311168684
49 1 7.0357062928753615 7.1003958738648043 0.0838130495109098
50 1 8.856306400619804 8.855354653999438 1.8058788084728992
51 1 7.0284450960242708 7.1926009649584071 3.6346905442602848
52 1 8.9812721629908996 8.9257530773046518 5.4619815630113928
53 1 7.0696814422798111 7.016082335014179 7.1225295488702765
54 1 8.8889100809195992 8.8534685328380416 9.0071705686638346
55 1 1.86200561831039 3.5503902254197706 1.789559231990588
ITEM: TIMESTEP energy, energy_weight, force_weight, nsims
8 -74359.7470002722593610 1 1 399
ITEM: NUMBER OF ATOMS
55
ITEM: BOX BOUNDS pp pp pp
0.0 10.7169505644728994
0.0 10.7169505644728994
0.0 10.7169505644728994