ITEM: TIMESTEP energy, energy_weight, force_weight, nsims
0 -21637.7839371854424832 1 1 176
ITEM: NUMBER OF ATOMS
16
ITEM: BOX BOUNDS pp pp pp
0.0 3.5723168548242996
0.0 7.1446337096485992
0.0 14.50311345086069
ITEM: ATOMS id type x y z
1 1 1.7861584274121498 1.7861584274121498 1.0000012749276053
2 1 1.7861584274121498 5.3584752822364497 1.0000012749276053
3 1 0.0 0.0 2.7861597678839104
4 1 0.0 3.5723168548242996 2.7861597678839104
5 1 1.7861584274121498 1.7861584274121498 4.5723182608402154
6 1 1.7861584274121498 5.3584752822364497 4.5723182608402154
7 1 0.0 0.0 6.3584767537965199
8 1 0.0 3.5723168548242996 6.3584767537965199
9 1 1.7861584274121498 1.7861584274121498 8.1446366970641702
10 1 1.7861584274121498 5.3584752822364497 8.1446366970641702
11 1 0.0 0.0 9.9307951900204756
12 1 0.0 3.5723168548242996 9.9307951900204756
13 1 1.7861584274121498 1.7861584274121498 11.7169536829767794
14 1 1.7861584274121498 5.3584752822364497 11.7169536829767794
15 1 0.0 0.0 13.5031121759330848
16 1 0.0 3.5723168548242996 13.5031121759330848
ITEM: TIMESTEP energy, energy_weight, force_weight, nsims
1 -21637.6815711754206864 1 1 176
ITEM: NUMBER OF ATOMS
16
ITEM: BOX BOUNDS pp pp pp
0.0 3.5723168548242996
0.0 7.1446337096485992
0.0 14.6031133165777884
ITEM: ATOMS id type x y z
1 1 1.7861584274121498 1.7861584274121498 1.050001815556566
2 1 1.7861584274121498 5.3584752822364497 1.050001815556566
3 1 0.0 0.0 2.8361597162038032
4 1 0.0 3.5723168548242996 2.8361597162038032
5 1 1.7861584274121498 1.7861584274121498 4.6223190771623726
6 1 1.7861584274121498 5.3584752822364497 4.6223190771623726
7 1 0.0 0.0 6.4084769778096096
8 1 0.0 3.5723168548242996 6.4084769778096096
9 1 1.7861584274121498 1.7861584274121498 8.1946363387681789
10 1 1.7861584274121498 5.3584752822364497 8.1946363387681789
11 1 0.0 0.0 9.9807942394154168
12 1 0.0 3.5723168548242996 9.9807942394154168
13 1 1.7861584274121498 1.7861584274121498 11.7669536003739862
14 1 1.7861584274121498 5.3584752822364497 11.7669536003739862
15 1 0.0 0.0 13.5531115010212204
16 1 0.0 3.5723168548242996 13.5531115010212204
ITEM: TIMESTEP energy, energy_weight, force_weight, nsims
2 -21637.5484537700467632 1 1 176
ITEM: NUMBER OF ATOMS
16
ITEM: BOX BOUNDS pp pp pp
0.0 3.5723168548242996
0.0 7.1446337096485992
0.0 14.7031131822948834
ITEM: ATOMS id type x y z
1 1 1.7861584274121498 1.7861584274121498 1.1000016502428458
2 1 1.7861584274121498 5.3584752822364497 1.1000016502428458
3 1 0.0 0.0 2.886160834920438
4 1 0.0 3.5723168548242996 2.886160834920438
5 1 1.7861584274121498 1.7861584274121498 4.672318549286712
6 1 1.7861584274121498 5.3584752822364497 4.672318549286712
7 1 0.0 0.0 6.4584777339643048
8 1 0.0 3.5723168548242996 6.4584777339643048
9 1 1.7861584274121498 1.7861584274121498 8.2446354483305786
10 1 1.7861584274121498 5.3584752822364497 8.2446354483305786
11 1 0.0 0.0 10.0307946330081705
12 1 0.0 3.5723168548242996 10.0307946330081705
13 1 1.7861584274121498 1.7861584274121498 11.8169523473744462
14 1 1.7861584274121498 5.3584752822364497 11.8169523473744462
15 1 0.0 0.0 13.6031115320520364
16 1 0.0 3.5723168548242996 13.6031115320520364
ITEM: TIMESTEP energy, energy_weight, force_weight, nsims
3 -21637.3913080444945088 1 1 176
ITEM: NUMBER OF ATOMS
16
ITEM: BOX BOUNDS pp pp pp
0.0 3.5723168548242996
0.0 7.1446337096485992
0.0 14.8031130480119818
ITEM: ATOMS id type x y z
1 1 1.7861584274121498 1.7861584274121498 1.1500020418043828
2 1 1.7861584274121498 5.3584752822364497 1.1500020418043828
3 1 0.0 0.0 2.9361604652905564
4 1 0.0 3.5723168548242996 2.9361604652905564
5 1 1.7861584274121498 1.7861584274121498 4.7223188887767292
6 1 1.7861584274121498 5.3584752822364497 4.7223188887767292
7 1 0.0 0.0 6.5084773122629036
8 1 0.0 3.5723168548242996 6.5084773122629036
9 1 1.7861584274121498 1.7861584274121498 8.2946357357490772
10 1 1.7861584274121498 5.3584752822364497 8.2946357357490772
11 1 0.0 0.0 10.0807941592352517
12 1 0.0 3.5723168548242996 10.0807941592352517
13 1 1.7861584274121498 1.7861584274121498 11.8669525827214244
14 1 1.7861584274121498 5.3584752822364497 11.8669525827214244
15 1 0.0 0.0 13.6531110062075954
16 1 0.0 3.5723168548242996 13.6531110062075954
ITEM: TIMESTEP energy, energy_weight, force_weight, nsims
4 -21637.2172018400306112 1 1 176
ITEM: NUMBER OF ATOMS
16
ITEM: BOX BOUNDS pp pp pp
0.0 3.5723168548242996
0.0 7.1446337096485992
0.0 14.9031129137290766
ITEM: ATOMS id type x y z
1 1 1.7861584274121498 1.7861584274121498 1.2000016324360479
2 1 1.7861584274121498 5.3584752822364497 1.2000016324360479
3 1 0.0 0.0 2.9861605795045568
4 1 0.0 3.5723168548242996 2.9861605795045568
5 1 1.7861584274121498 1.7861584274121498 4.7723180362617744
6 1 1.7861584274121498 5.3584752822364497 4.7723180362617744
7 1 0.0 0.0 6.5584769833302828
8 1 0.0 3.5723168548242996 6.5584769833302828
9 1 1.7861584274121498 1.7861584274121498 8.3446359303987912
10 1 1.7861584274121498 5.3584752822364497 8.3446359303987912
11 1 0.0 0.0 10.1307948774673022
12 1 0.0 3.5723168548242996 10.1307948774673022
13 1 1.7861584274121498 1.7861584274121498 11.9169523342245184
14 1 1.7861584274121498 5.3584752822364497 11.9169523342245184
15 1 0.0 0.0 13.7031112812930278
16 1 0.0 3.5723168548242996 13.7031112812930278
ITEM: TIMESTEP energy, energy_weight, force_weight, nsims
5 -21637.0331817732112544 1 1 176
ITEM: NUMBER OF ATOMS
16
ITEM: BOX BOUNDS pp pp pp
0.0 3.5723168548242996
0.0 7.1446337096485992
0.0 15.0031127794461732
ITEM: ATOMS id type x y z
1 1 1.7861584274121498 1.7861584274121498 1.2500023449548934
2 1 1.7861584274121498 5.3584752822364497 1.2500023449548934
3 1 0.0 0.0 3.0361604291299091
4 1 0.0 3.5723168548242996 3.0361604291299091
5 1 1.7861584274121498 1.7861584274121498 4.822318513304925
6 1 1.7861584274121498 5.3584752822364497 4.822318513304925
7 1 0.0 0.0 6.6084765974799398
8 1 0.0 3.5723168548242996 6.6084765974799398
9 1 1.7861584274121498 1.7861584274121498 8.3946361819662343
10 1 1.7861584274121498 5.3584752822364497 8.3946361819662343
11 1 0.0 0.0 10.1807942661412501
12 1 0.0 3.5723168548242996 10.1807942661412501
13 1 1.7861584274121498 1.7861584274121498 11.9669523503162658
14 1 1.7861584274121498 5.3584752822364497 11.9669523503162658
15 1 0.0 0.0 13.7531104344912816
16 1 0.0 3.5723168548242996 13.7531104344912816
ITEM: TIMESTEP energy, energy_weight, force_weight, nsims
6 -21636.8452937680558544 1 1 176
ITEM: NUMBER OF ATOMS
16
ITEM: BOX BOUNDS pp pp pp
0.0 3.5723168548242996
0.0 7.1446337096485992
0.0 15.1031126451632716
ITEM: ATOMS id type x y z
1 1 1.7861584274121498 1.7861584274121498 1.3000019312436933
2 1 1.7861584274121498 5.3584752822364497 1.3000019312436933
3 1 0.0 0.0 3.0861609760450759
4 1 0.0 3.5723168548242996 3.0861609760450759
5 1 1.7861584274121498 1.7861584274121498 4.8723185105351946
6 1 1.7861584274121498 5.3584752822364497 4.8723185105351946
7 1 0.0 0.0 6.6584775553365764
8 1 0.0 3.5723168548242996 6.6584775553365764
9 1 1.7861584274121498 1.7861584274121498 8.4446350898266953
10 1 1.7861584274121498 5.3584752822364497 8.4446350898266953
11 1 0.0 0.0 10.2307941346280807
12 1 0.0 3.5723168548242996 10.2307941346280807
13 1 1.7861584274121498 1.7861584274121498 12.0169516691181961
14 1 1.7861584274121498 5.3584752822364497 12.0169516691181961
15 1 0.0 0.0 13.8031107139195798
16 1 0.0 3.5723168548242996 13.8031107139195798
ITEM: TIMESTEP energy, energy_weight, force_weight, nsims
7 -21636.6576618204526320 1 1 176
ITEM: NUMBER OF ATOMS
16
ITEM: BOX BOUNDS pp pp pp
0.0 3.5723168548242996
0.0 7.1446337096485992
0.0 15.2031125108803664
ITEM: ATOMS id type x y z
1 1 1.7861584274121498 1.7861584274121498 1.3500014238074014
2 1 1.7861584274121498 5.3584752822364497 1.3500014238074014
3 1 0.0 0.0 3.1361603815056962
4 1 0.0 3.5723168548242996 3.1361603815056962
5 1 1.7861584274121498 1.7861584274121498 4.9223193392039918
6 1 1.7861584274121498 5.3584752822364497 4.9223193392039918
7 1 0.0 0.0 6.708476776591036
8 1 0.0 3.5723168548242996 6.708476776591036
9 1 1.7861584274121498 1.7861584274121498 8.4946357342893304
10 1 1.7861584274121498 5.3584752822364497 8.4946357342893304
11 1 0.0 0.0 10.2807931716763754
12 1 0.0 3.5723168548242996 10.2807931716763754
13 1 1.7861584274121498 1.7861584274121498 12.0669521293746698
14 1 1.7861584274121498 5.3584752822364497 12.0669521293746698
15 1 0.0 0.0 13.8531110870729642
16 1 0.0 3.5723168548242996 13.8531110870729642
ITEM: TIMESTEP energy, energy_weight, force_weight, nsims
8 -21636.472069353505504 1 1 176
ITEM: NUMBER OF ATOMS
16
ITEM: BOX BOUNDS pp pp pp
0.0 3.5723168548242996
0.0 7.1446337096485992
0.0 15.3031123765974648
ITEM: ATOMS id type x y z
1 1 1.7861584274121498 1.7861584274121498 1.4000021751505438
2 1 1.7861584274121498 5.3584752822364497 1.4000021751505438
3 1 0.0 0.0 3.1861600273896729
4 1 0.0 3.5723168548242996 3.1861600273896729
5 1 1.7861584274121498 1.7861584274121498 4.972319409940039
6 1 1.7861584274121498 5.3584752822364497 4.972319409940039
7 1 0.0 0.0 6.7584772621791674
8 1 0.0 3.5723168548242996 6.7584772621791674
9 1 1.7861584274121498 1.7861584274121498 8.5446351144182966
10 1 1.7861584274121498 5.3584752822364497 8.5446351144182966
11 1 0.0 0.0 10.3307929666574232
12 1 0.0 3.5723168548242996 10.3307929666574232
13 1 1.7861584274121498 1.7861584274121498 12.1169523492077929
14 1 1.7861584274121498 5.3584752822364497 12.1169523492077929
15 1 0.0 0.0 13.9031102014469194
16 1 0.0 3.5723168548242996 13.9031102014469194
ITEM: TIMESTEP energy, energy_weight, force_weight, nsims
9 -21636.2886820835046816 1 1 176
ITEM: NUMBER OF ATOMS
16
ITEM: BOX BOUNDS pp pp pp
0.0 3.5723168548242996
0.0 7.1446337096485992
0.0 15.4031122423145597
ITEM: ATOMS id type x y z
1 1 1.7861584274121498 1.7861584274121498 1.4500027771547657
2 1 1.7861584274121498 5.3584752822364497 1.4500027771547657
3 1 0.0 0.0 3.236159995263356
4 1 0.0 3.5723168548242996 3.236159995263356
5 1 1.7861584274121498 1.7861584274121498 5.0223187536831695
6 1 1.7861584274121498 5.3584752822364497 5.0223187536831695
7 1 0.0 0.0 6.8084775121029848
8 1 0.0 3.5723168548242996 6.8084775121029848
9 1 1.7861584274121498 1.7861584274121498 8.5946347302115758
10 1 1.7861584274121498 5.3584752822364497 8.5946347302115758
11 1 0.0 0.0 10.3807934886313884
12 1 0.0 3.5723168548242996 10.3807934886313884
13 1 1.7861584274121498 1.7861584274121498 12.1669522470512046
14 1 1.7861584274121498 5.3584752822364497 12.1669522470512046
15 1 0.0 0.0 13.9531094651597912
16 1 0.0 3.5723168548242996 13.9531094651597912
ITEM: TIMESTEP energy, energy_weight, force_weight, nsims
10 -21636.1071874896442752 1 1 176
ITEM: NUMBER OF ATOMS
16
ITEM: BOX BOUNDS pp pp pp
0.0 3.5723168548242996
0.0 7.1446337096485992
0.0 15.5031121080316582
ITEM: ATOMS id type x y z
1 1 1.7861584274121498 1.7861584274121498 1.5000020617013926
2 1 1.7861584274121498 5.3584752822364497 1.5000020617013926
3 1 0.0 0.0 3.2861605666928329
4 1 0.0 3.5723168548242996 3.2861605666928329
5 1 1.7861584274121498 1.7861584274121498 5.072319071684273
6 1 1.7861584274121498 5.3584752822364497 5.072319071684273
7 1 0.0 0.0 6.8584775766757132
8 1 0.0 3.5723168548242996 6.8584775766757132
9 1 1.7861584274121498 1.7861584274121498 8.6446345313559424
10 1 1.7861584274121498 5.3584752822364497 8.6446345313559424
11 1 0.0 0.0 10.4307930363473833
12 1 0.0 3.5723168548242996 10.4307930363473833
13 1 1.7861584274121498 1.7861584274121498 12.2169515413388243
14 1 1.7861584274121498 5.3584752822364497 12.2169515413388243
15 1 0.0 0.0 14.0031100463302636
16 1 0.0 3.5723168548242996 14.0031100463302636
ITEM: TIMESTEP energy, energy_weight, force_weight, nsims
11 -21635.9276703348623424 1 1 176
ITEM: NUMBER OF ATOMS
16
ITEM: BOX BOUNDS pp pp pp
0.0 3.5723168548242996
0.0 7.1446337096485992
0.0 15.6031119737487512
ITEM: ATOMS id type x y z
1 1 1.7861584274121498 1.7861584274121498 1.5500022212938196
2 1 1.7861584274121498 5.3584752822364497 1.5500022212938196
3 1 0.0 0.0 3.3361606629327208
4 1 0.0 3.5723168548242996 3.3361606629327208
5 1 1.7861584274121498 1.7861584274121498 5.1223191045716226
6 1 1.7861584274121498 5.3584752822364497 5.1223191045716226
7 1 0.0 0.0 6.9084775462105244
8 1 0.0 3.5723168548242996 6.9084775462105244
9 1 1.7861584274121498 1.7861584274121498 8.6946344275382278
10 1 1.7861584274121498 5.3584752822364497 8.6946344275382278
11 1 0.0 0.0 10.4807928691771296
12 1 0.0 3.5723168548242996 10.4807928691771296
13 1 1.7861584274121498 1.7861584274121498 12.2669513108160313
14 1 1.7861584274121498 5.3584752822364497 12.2669513108160313
15 1 0.0 0.0 14.0531097524549313
16 1 0.0 3.5723168548242996 14.0531097524549313
ITEM: TIMESTEP energy, energy_weight, force_weight, nsims
12 -21635.7509932147040672 1 1 176
ITEM: NUMBER OF ATOMS
16
ITEM: BOX BOUNDS pp pp pp
0.0 3.5723168548242996
0.0 7.1446337096485992
0.0 15.7031154117827062
ITEM: ATOMS id type x y z
1 1 1.7861584274121498 1.7861584274121498 1.6000029917988694
2 1 1.7861584274121498 5.3584752822364497 1.6000029917988694
3 1 0.0 0.0 3.3861617058697991
4 1 0.0 3.5723168548242996 3.3861617058697991
5 1 1.7861584274121498 1.7861584274121498 5.1723204199407285
6 1 1.7861584274121498 5.3584752822364497 5.1723204199407285
7 1 0.0 0.0 6.9584791340116582
8 1 0.0 3.5723168548242996 6.9584791340116582
9 1 1.7861584274121498 1.7861584274121498 8.744636277771047
10 1 1.7861584274121498 5.3584752822364497 8.744636277771047
11 1 0.0 0.0 10.5307949918419776
12 1 0.0 3.5723168548242996 10.5307949918419776
13 1 1.7861584274121498 1.7861584274121498 12.3169537059129084
14 1 1.7861584274121498 5.3584752822364497 12.3169537059129084
15 1 0.0 0.0 14.1031124199838356
16 1 0.0 3.5723168548242996 14.1031124199838356
ITEM: TIMESTEP energy, energy_weight, force_weight, nsims
13 -21635.5786486643773968 1 1 176
ITEM: NUMBER OF ATOMS
16
ITEM: BOX BOUNDS pp pp pp
0.0 3.5723168548242996
0.0 7.1446337096485992
0.0 15.803115277499801
ITEM: ATOMS id type x y z
1 1 1.7861584274121498 1.7861584274121498 1.6500032661237546
2 1 1.7861584274121498 5.3584752822364497 1.6500032661237546
3 1 0.0 0.0 3.4361614325438637
4 1 0.0 3.5723168548242996 3.4361614325438637
5 1 1.7861584274121498 1.7861584274121498 5.2223195989639724
6 1 1.7861584274121498 5.3584752822364497 5.2223195989639724
7 1 0.0 0.0 7.0084777653840824
8 1 0.0 3.5723168548242996 7.0084777653840824
9 1 1.7861584274121498 1.7861584274121498 8.7946375121157186
10 1 1.7861584274121498 5.3584752822364497 8.7946375121157186
11 1 0.0 0.0 10.5807956785358286
12 1 0.0 3.5723168548242996 10.5807956785358286
13 1 1.7861584274121498 1.7861584274121498 12.3669538449559369
14 1 1.7861584274121498 5.3584752822364497 12.3669538449559369
15 1 0.0 0.0 14.1531120113760434
16 1 0.0 3.5723168548242996 14.1531120113760434
ITEM: TIMESTEP energy, energy_weight, force_weight, nsims
14 -21635.4122588805366832 1 1 176
ITEM: NUMBER OF ATOMS
16
ITEM: BOX BOUNDS pp pp pp
0.0 3.5723168548242996
0.0 7.1446337096485992
0.0 15.9031151432168976
ITEM: ATOMS id type x y z
1 1 1.7861584274121498 1.7861584274121498 1.7000032510220286
2 1 1.7861584274121498 5.3584752822364497 1.7000032510220286
3 1 0.0 0.0 3.4861616283324342
4 1 0.0 3.5723168548242996 3.4861616283324342
5 1 1.7861584274121498 1.7861584274121498 5.2723200056428397
6 1 1.7861584274121498 5.3584752822364497 5.2723200056428397
7 1 0.0 0.0 7.058478382953246
8 1 0.0 3.5723168548242996 7.058478382953246
9 1 1.7861584274121498 1.7861584274121498 8.8446367602636524
10 1 1.7861584274121498 5.3584752822364497 8.8446367602636524
11 1 0.0 0.0 10.6307951375740598
12 1 0.0 3.5723168548242996 10.6307951375740598
13 1 1.7861584274121498 1.7861584274121498 12.4169535148844634
14 1 1.7861584274121498 5.3584752822364497 12.4169535148844634
15 1 0.0 0.0 14.2031118921948707
16 1 0.0 3.5723168548242996 14.2031118921948707
ITEM: TIMESTEP energy, energy_weight, force_weight, nsims
15 -21635.2530744906725888 1 1 176
ITEM: NUMBER OF ATOMS
16
ITEM: BOX BOUNDS pp pp pp
0.0 3.5723168548242996
0.0 7.1446337096485992
0.0 16.003115008933996
ITEM: ATOMS id type x y z
1 1 1.7861584274121498 1.7861584274121498 1.7500030383754674
2 1 1.7861584274121498 5.3584752822364497 1.7500030383754674
3 1 0.0 0.0 3.5361619144906192
4 1 0.0 3.5723168548242996 3.5361619144906192
5 1 1.7861584274121498 1.7861584274121498 5.3223191902942704
6 1 1.7861584274121498 5.3584752822364497 5.3223191902942704
7 1 0.0 0.0 7.1084780664094227
8 1 0.0 3.5723168548242996 7.1084780664094227
9 1 1.7861584274121498 1.7861584274121498 8.8946369425245742
10 1 1.7861584274121498 5.3584752822364497 8.8946369425245742
11 1 0.0 0.0 10.6807958186397266
12 1 0.0 3.5723168548242996 10.6807958186397266
13 1 1.7861584274121498 1.7861584274121498 12.4669530944433778
14 1 1.7861584274121498 5.3584752822364497 12.4669530944433778
15 1 0.0 0.0 14.2531119705585301
16 1 0.0 3.5723168548242996 14.2531119705585301
ITEM: TIMESTEP energy, energy_weight, force_weight, nsims
16 -21635.1018301976146176 1 1 176
ITEM: NUMBER OF ATOMS
16
ITEM: BOX BOUNDS pp pp pp
0.0 3.5723168548242996
0.0 7.1446337096485992
0.0 16.1031148746510908
ITEM: ATOMS id type x y z
1 1 1.7861584274121498 1.7861584274121498 1.8000029600655238
2 1 1.7861584274121498 5.3584752822364497 1.8000029600655238
3 1 0.0 0.0 3.586160461961823
4 1 0.0 3.5723168548242996 3.586160461961823
5 1 1.7861584274121498 1.7861584274121498 5.3723195741696097
6 1 1.7861584274121498 5.3584752822364497 5.3723195741696097
7 1 0.0 0.0 7.1584786863773964
8 1 0.0 3.5723168548242996 7.1584786863773964
9 1 1.7861584274121498 1.7861584274121498 8.9446361882736944
10 1 1.7861584274121498 5.3584752822364497 8.9446361882736944
11 1 0.0 0.0 10.730795300481482
12 1 0.0 3.5723168548242996 10.730795300481482
13 1 1.7861584274121498 1.7861584274121498 12.5169544126892678
14 1 1.7861584274121498 5.3584752822364497 12.5169544126892678
15 1 0.0 0.0 14.3031119145855659
16 1 0.0 3.5723168548242996 14.3031119145855659
ITEM: TIMESTEP energy, energy_weight, force_weight, nsims
17 -21634.9587530789685840 1 1 176
ITEM: NUMBER OF ATOMS
16
ITEM: BOX BOUNDS pp pp pp
0.0 3.5723168548242996
0.0 7.1446337096485992
0.0 16.2031147403681892
ITEM: ATOMS id type x y z
1 1 1.7861584274121498 1.7861584274121498 1.850001967661856
2 1 1.7861584274121498 5.3584752822364497 1.850001967661856
3 1 0.0 0.0 3.6361604226237142
4 1 0.0 3.5723168548242996 3.6361604226237142
5 1 1.7861584274121498 1.7861584274121498 5.4223188775855711
6 1 1.7861584274121498 5.3584752822364497 5.4223188775855711
7 1 0.0 0.0 7.2084773325474281
8 1 0.0 3.5723168548242996 7.2084773325474281
9 1 1.7861584274121498 1.7861584274121498 8.9946374078207612
10 1 1.7861584274121498 5.3584752822364497 8.9946374078207612
11 1 0.0 0.0 10.7807958627826182
12 1 0.0 3.5723168548242996 10.7807958627826182
13 1 1.7861584274121498 1.7861584274121498 12.5669543177444752
14 1 1.7861584274121498 5.3584752822364497 12.5669543177444752
15 1 0.0 0.0 14.3531127727063321
16 1 0.0 3.5723168548242996 14.3531127727063321
ITEM: TIMESTEP energy, energy_weight, force_weight, nsims
18 -21634.8237005479604704 1 1 176
ITEM: NUMBER OF ATOMS
16
ITEM: BOX BOUNDS pp pp pp
0.0 3.5723168548242996
0.0 7.1446337096485992
0.0 16.3031146060852841
ITEM: ATOMS id type x y z
1 1 1.7861584274121498 1.7861584274121498 1.900002473356773
2 1 1.7861584274121498 5.3584752822364497 1.900002473356773
3 1 0.0 0.0 3.686161927730713
4 1 0.0 3.5723168548242996 3.686161927730713
5 1 1.7861584274121498 1.7861584274121498 5.4723197517931928
6 1 1.7861584274121498 5.3584752822364497 5.4723197517931928
7 1 0.0 0.0 7.2584775758556717
8 1 0.0 3.5723168548242996 7.2584775758556717
9 1 1.7861584274121498 1.7861584274121498 9.0446370302296106
10 1 1.7861584274121498 5.3584752822364497 9.0446370302296106
11 1 0.0 0.0 10.8307948542920904
12 1 0.0 3.5723168548242996 10.8307948542920904
13 1 1.7861584274121498 1.7861584274121498 12.6169526783545702
14 1 1.7861584274121498 5.3584752822364497 12.6169526783545702
15 1 0.0 0.0 14.4031121327285128
16 1 0.0 3.5723168548242996 14.4031121327285128
ITEM: TIMESTEP energy, energy_weight, force_weight, nsims
19 -21634.6963626688411760 1 1 176
ITEM: NUMBER OF ATOMS
16
ITEM: BOX BOUNDS pp pp pp
0.0 3.5723168548242996
0.0 7.1446337096485992
0.0 16.4031144718023825
ITEM: ATOMS id type x y z
1 1 1.7861584274121498 1.7861584274121498 1.950002248407867
2 1 1.7861584274121498 5.3584752822364497 1.950002248407867
3 1 0.0 0.0 3.736161987914136
4 1 0.0 3.5723168548242996 3.736161987914136
5 1 1.7861584274121498 1.7861584274121498 5.522320087108958
6 1 1.7861584274121498 5.3584752822364497 5.522320087108958
7 1 0.0 0.0 7.3084781863037805
8 1 0.0 3.5723168548242996 7.3084781863037805
9 1 1.7861584274121498 1.7861584274121498 9.094636285498602
10 1 1.7861584274121498 5.3584752822364497 9.094636285498602
11 1 0.0 0.0 10.8807943846934236
12 1 0.0 3.5723168548242996 10.8807943846934236
13 1 1.7861584274121498 1.7861584274121498 12.6669524838882436
14 1 1.7861584274121498 5.3584752822364497 12.6669524838882436
15 1 0.0 0.0 14.4531122233945144
16 1 0.0 3.5723168548242996 14.4531122233945144
ITEM: TIMESTEP energy, energy_weight, force_weight, nsims
20 -21634.5764290976840128 1 1 176
ITEM: NUMBER OF ATOMS
16
ITEM: BOX BOUNDS pp pp pp
0.0 3.5723168548242996
0.0 7.1446337096485992
0.0 16.5031143375194774
ITEM: ATOMS id type x y z
1 1 1.7861584274121498 1.7861584274121498 2.000002524695383
2 1 1.7861584274121498 5.3584752822364497 2.000002524695383
3 1 0.0 0.0 3.7861609944280562
4 1 0.0 3.5723168548242996 3.7861609944280562
5 1 1.7861584274121498 1.7861584274121498 5.5723194641607298
6 1 1.7861584274121498 5.3584752822364497 5.5723194641607298
7 1 0.0 0.0 7.3584779338934015
8 1 0.0 3.5723168548242996 7.3584779338934015
9 1 1.7861584274121498 1.7861584274121498 9.1446364036260768
10 1 1.7861584274121498 5.3584752822364497 9.1446364036260768
11 1 0.0 0.0 10.9307948733587476
12 1 0.0 3.5723168548242996 10.9307948733587476
13 1 1.7861584274121498 1.7861584274121498 12.7169533430914204
14 1 1.7861584274121498 5.3584752822364497 12.7169533430914204
15 1 0.0 0.0 14.5031118128240966
16 1 0.0 3.5723168548242996 14.5031118128240966
ITEM: TIMESTEP energy, energy_weight, force_weight, nsims
21 -21634.4635760210185248 1 1 176
ITEM: NUMBER OF ATOMS
16
ITEM: BOX BOUNDS pp pp pp
0.0 3.5723168548242996
0.0 7.1446337096485992
0.0 16.6031142032365758
ITEM: ATOMS id type x y z
1 1 1.7861584274121498 1.7861584274121498 2.050003113787823
2 1 1.7861584274121498 5.3584752822364497 2.050003113787823
3 1 0.0 0.0 3.836161158837752
4 1 0.0 3.5723168548242996 3.836161158837752
5 1 1.7861584274121498 1.7861584274121498 5.6223192038876828
6 1 1.7861584274121498 5.3584752822364497 5.6223192038876828
7 1 0.0 0.0 7.4084772489376114
8 1 0.0 3.5723168548242996 7.4084772489376114
9 1 1.7861584274121498 1.7861584274121498 9.1946369542989608
10 1 1.7861584274121498 5.3584752822364497 9.1946369542989608
11 1 0.0 0.0 10.9807949993488912
12 1 0.0 3.5723168548242996 10.9807949993488912
13 1 1.7861584274121498 1.7861584274121498 12.7669530443988216
14 1 1.7861584274121498 5.3584752822364497 12.7669530443988216
15 1 0.0 0.0 14.5531110894487502
16 1 0.0 3.5723168548242996 14.5531110894487502
ITEM: TIMESTEP energy, energy_weight, force_weight, nsims
22 -21634.3574982650607120 1 1 176
ITEM: NUMBER OF ATOMS
16
ITEM: BOX BOUNDS pp pp pp
0.0 3.5723168548242996
0.0 7.1446337096485992
0.0 16.7031140689536706
ITEM: ATOMS id type x y z
1 1 1.7861584274121498 1.7861584274121498 2.1000023569420145
2 1 1.7861584274121498 5.3584752822364497 2.1000023569420145
3 1 0.0 0.0 3.886161552085424
4 1 0.0 3.5723168548242996 3.886161552085424
5 1 1.7861584274121498 1.7861584274121498 5.6723190769174262
6 1 1.7861584274121498 5.3584752822364497 5.6723190769174262
7 1 0.0 0.0 7.4584782720608348
8 1 0.0 3.5723168548242996 7.4584782720608348
9 1 1.7861584274121498 1.7861584274121498 9.2446357968928368
10 1 1.7861584274121498 5.3584752822364497 9.2446357968928368
11 1 0.0 0.0 11.0307949920362471
12 1 0.0 3.5723168548242996 11.0307949920362471
13 1 1.7861584274121498 1.7861584274121498 12.8169525168682502
14 1 1.7861584274121498 5.3584752822364497 12.8169525168682502
15 1 0.0 0.0 14.6031117120116606
16 1 0.0 3.5723168548242996 14.6031117120116606
ITEM: TIMESTEP energy, energy_weight, force_weight, nsims
23 -21634.257940044371936 1 1 176
ITEM: NUMBER OF ATOMS
16
ITEM: BOX BOUNDS pp pp pp
0.0 3.5723168548242996
0.0 7.1446337096485992
0.0 16.8031139346707654
ITEM: ATOMS id type x y z
1 1 1.7861584274121498 1.7861584274121498 2.1500037963487482
2 1 1.7861584274121498 5.3584752822364497 2.1500037963487482
3 1 0.0 0.0 3.9361613651131032
4 1 0.0 3.5723168548242996 3.9361613651131032
5 1 1.7861584274121498 1.7861584274121498 5.7223189338774576
6 1 1.7861584274121498 5.3584752822364497 5.7223189338774576
7 1 0.0 0.0 7.5084781829532058
8 1 0.0 3.5723168548242996 7.5084781829532058
9 1 1.7861584274121498 1.7861584274121498 9.2946357517175606
10 1 1.7861584274121498 5.3584752822364497 9.2946357517175606
11 1 0.0 0.0 11.0807950007933105
12 1 0.0 3.5723168548242996 11.0807950007933105
13 1 1.7861584274121498 1.7861584274121498 12.8669525695576646
14 1 1.7861584274121498 5.3584752822364497 12.8669525695576646
15 1 0.0 0.0 14.6531101383220168
16 1 0.0 3.5723168548242996 14.6531101383220168
ITEM: TIMESTEP energy, energy_weight, force_weight, nsims
24 -21634.1647004041296896 1 1 176
ITEM: NUMBER OF ATOMS
16
ITEM: BOX BOUNDS pp pp pp
0.0 3.5723168548242996
0.0 7.1446337096485992
0.0 16.9031138003878638
ITEM: ATOMS id type x y z
1 1 1.7861584274121498 1.7861584274121498 2.2000028026415421
2 1 1.7861584274121498 5.3584752822364497 2.2000028026415421
3 1 0.0 0.0 3.9861615991740482
4 1 0.0 3.5723168548242996 3.9861615991740482
5 1 1.7861584274121498 1.7861584274121498 5.7723187053951738
6 1 1.7861584274121498 5.3584752822364497 5.7723187053951738
7 1 0.0 0.0 7.558477501927679
8 1 0.0 3.5723168548242996 7.558477501927679
9 1 1.7861584274121498 1.7861584274121498 9.3446362984601841
10 1 1.7861584274121498 5.3584752822364497 9.3446362984601841
11 1 0.0 0.0 11.1307950949926919
12 1 0.0 3.5723168548242996 11.1307950949926919
13 1 1.7861584274121498 1.7861584274121498 12.9169522012138156
14 1 1.7861584274121498 5.3584752822364497 12.9169522012138156
15 1 0.0 0.0 14.7031109977463218
16 1 0.0 3.5723168548242996 14.7031109977463218
ITEM: TIMESTEP energy, energy_weight, force_weight, nsims
25 -21634.0775264160765808 1 1 176
ITEM: NUMBER OF ATOMS
16
ITEM: BOX BOUNDS pp pp pp
0.0 3.5723168548242996
0.0 7.1446337096485992
0.0 17.0031172384218152
ITEM: ATOMS id type x y z
1 1 1.7861584274121498 1.7861584274121498 2.2500038007313967
2 1 1.7861584274121498 5.3584752822364497 2.2500038007313967
3 1 0.0 0.0 4.036162563198646
4 1 0.0 3.5723168548242996 4.036162563198646
5 1 1.7861584274121498 1.7861584274121498 5.8223213256658948
6 1 1.7861584274121498 5.3584752822364497 5.8223213256658948
7 1 0.0 0.0 7.6084800881331436
8 1 0.0 3.5723168548242996 7.6084800881331436
9 1 1.7861584274121498 1.7861584274121498 9.3946371502886717
10 1 1.7861584274121498 5.3584752822364497 9.3946371502886717
11 1 0.0 0.0 11.1807959127559205
12 1 0.0 3.5723168548242996 11.1807959127559205
13 1 1.7861584274121498 1.7861584274121498 12.9669546752231692
14 1 1.7861584274121498 5.3584752822364497 12.9669546752231692
15 1 0.0 0.0 14.7531134376904182
16 1 0.0 3.5723168548242996 14.7531134376904182
ITEM: TIMESTEP energy, energy_weight, force_weight, nsims
26 -21633.9961999823099184 1 1 176
ITEM: NUMBER OF ATOMS
16
ITEM: BOX BOUNDS pp pp pp
0.0 3.5723168548242996
0.0 7.1446337096485992
0.0 17.1031171041389136
ITEM: ATOMS id type x y z
1 1 1.7861584274121498 1.7861584274121498 2.300003243800655
2 1 1.7861584274121498 5.3584752822364497 2.300003243800655
3 1 0.0 0.0 4.0861621476362711
4 1 0.0 3.5723168548242996 4.0861621476362711
5 1 1.7861584274121498 1.7861584274121498 5.8723210514718876
6 1 1.7861584274121498 5.3584752822364497 5.8723210514718876
7 1 0.0 0.0 7.6584799553075032
8 1 0.0 3.5723168548242996 7.6584799553075032
9 1 1.7861584274121498 1.7861584274121498 9.4446371488314096
10 1 1.7861584274121498 5.3584752822364497 9.4446371488314096
11 1 0.0 0.0 11.2307960526670261
12 1 0.0 3.5723168548242996 11.2307960526670261
13 1 1.7861584274121498 1.7861584274121498 13.0169549565026443
14 1 1.7861584274121498 5.3584752822364497 13.0169549565026443
15 1 0.0 0.0 14.8031138603382556
16 1 0.0 3.5723168548242996 14.8031138603382556
ITEM: TIMESTEP energy, energy_weight, force_weight, nsims
27 -21633.9205287195363776 1 1 176
ITEM: NUMBER OF ATOMS
16
ITEM: BOX BOUNDS pp pp pp
0.0 3.5723168548242996
0.0 7.1446337096485992
0.0 17.2031169698560085
ITEM: ATOMS id type x y z
1 1 1.7861584274121498 1.7861584274121498 2.3500042686800282
2 1 1.7861584274121498 5.3584752822364497 2.3500042686800282
3 1 0.0 0.0 4.1361626161794503
4 1 0.0 3.5723168548242996 4.1361626161794503
5 1 1.7861584274121498 1.7861584274121498 5.9223209636788718
6 1 1.7861584274121498 5.3584752822364497 5.9223209636788718
7 1 0.0 0.0 7.7084793111782934
8 1 0.0 3.5723168548242996 7.7084793111782934
9 1 1.7861584274121498 1.7861584274121498 9.4946376586777142
10 1 1.7861584274121498 5.3584752822364497 9.4946376586777142
11 1 0.0 0.0 11.2807960061771358
12 1 0.0 3.5723168548242996 11.2807960061771358
13 1 1.7861584274121498 1.7861584274121498 13.0669543536765609
14 1 1.7861584274121498 5.3584752822364497 13.0669543536765609
15 1 0.0 0.0 14.8531127011759808
16 1 0.0 3.5723168548242996 14.8531127011759808
ITEM: TIMESTEP energy, energy_weight, force_weight, nsims
28 -21633.8502988836553408 1 1 176
ITEM: NUMBER OF ATOMS
16
ITEM: BOX BOUNDS pp pp pp
0.0 3.5723168548242996
0.0 7.1446337096485992
0.0 17.3031168355731069
ITEM: ATOMS id type x y z
1 1 1.7861584274121498 1.7861584274121498 2.4000028660029145
2 1 1.7861584274121498 5.3584752822364497 2.4000028660029145
3 1 0.0 0.0 4.1861620894587208
4 1 0.0 3.5723168548242996 4.1861620894587208
5 1 1.7861584274121498 1.7861584274121498 5.9723213129145262
6 1 1.7861584274121498 5.3584752822364497 5.9723213129145262
7 1 0.0 0.0 7.7584788060586504
8 1 0.0 3.5723168548242996 7.7584788060586504
9 1 1.7861584274121498 1.7861584274121498 9.5446380295144576