ITEM: TIMESTEP energy, energy_weight, force_weight, nsims
0 -43276.1729577599980992 1 1 500
ITEM: NUMBER OF ATOMS
32
ITEM: BOX BOUNDS xy xz yz pp pp pp
-0.5691399210786064 9.0621603891249993 -0.2845699605393032
-0.2936502452492065 9.0576927440531616 -0.2845699605393032
0.0 9.0529260476884819 -0.2936502452492065
ITEM: ATOMS id type x y z
1 1 0.0927089792945 0.0306559526718 0.0924222273135
2 1 -0.134331401423 2.1347554528599999 2.1837214730299999
3 1 2.1062167858700001 -0.126723276099 2.3524996998000001
4 1 2.2349792503699999 2.30348227526 0.0300584303561
5 1 -0.144087120042 -0.118007684818 4.5682531410699996
6 1 -0.287149772611 2.1415107331200001 6.7354005170900004
7 1 1.9744514582199998 -0.278105011035 6.7551105476800002
8 1 2.0159661827500002 2.1971609479400001 4.4446146141499998
9 1 -0.213502354449 4.5371217131300004 -0.0748432555141
10 1 -0.354735922049 6.8186273708899998 2.21487168627
11 1 1.9740537103 4.3618575262999997 2.2284492647500001
12 1 1.96379346366 6.8398156074500004 -0.0160399743713
13 1 -0.197472944766 4.4813162920899998 4.4496417039900003
14 1 -0.386289343075 6.5159706472399996 6.8191690523900004
15 1 1.97540567194 4.2712058118299998 6.79986006643
16 1 1.89257691922 6.6643934098099998 4.5858773775000002
17 1 4.45889691907 0.0532414107407 -0.00793941614382
18 1 4.4142340118899997 2.2273868298599999 2.1706200784499998
19 1 6.7905422730799998 -0.152236934611 2.2795050517900002
20 1 6.68949325064 2.31397915826 0.0435201313891
21 1 4.4805303317599998 -0.178872416812 4.4370590420799996
22 1 4.32011839831 1.94792729638 6.7083612375700002
23 1 6.62799685199 -0.176887866606 6.74122788558
24 1 6.5284171143299998 2.1550638266100002 4.55537897493
25 1 4.3829919075500001 4.4902207469000004 -0.0589752867377
26 1 4.2164311831300001 6.6856302214600004 2.31105178318
27 1 6.5612755307199998 4.4024561013800003 2.1654472365099999
28 1 6.58060312822 6.77814871024 -0.0844438835876
29 1 4.3322920116399999 4.3075137629700002 4.48183481431
30 1 4.0680461615899999 6.5122030225099996 6.8603173171599998
31 1 6.4070602004100002 4.3417596506600003 6.80369035944
32 1 6.5189403820800004 6.6208433537199998 4.50776692097
ITEM: TIMESTEP energy, energy_weight, force_weight, nsims
1 -43274.7171040000030208 1 1 500
ITEM: NUMBER OF ATOMS
32
ITEM: BOX BOUNDS xy xz yz pp pp pp
0.0 9.0485696810777903 0.0927693453757454
0.0 8.9543467986196302 0.0927693453757454
0.0 8.8620737829793442 0.0918032749977998
ITEM: ATOMS id type x y z
1 1 -0.0472298429812 0.0584362919415 0.100204354472
2 1 -0.0331140762685 2.2400338516099998 2.2868599121100002
3 1 2.1650306222800002 -0.062787563098 2.31361274045
4 1 2.1367912492099999 2.1768271160000001 -0.090399356038
5 1 0.178126392094 0.0410468890679 4.3483218396299997
6 1 0.158657965033 2.19071768362 6.6971533474999996
7 1 2.31407590781 0.110778461367 6.6793193102200004
8 1 2.22464288241 2.2668459559000001 4.4056913604699997
9 1 0.145059690921 4.34757282059 0.0681670715387
10 1 0.020142981952 6.6870446987200004 2.1949850207899999
11 1 2.3175048517299999 4.47788248145 2.1965695595799999
12 1 2.3285680171499999 6.6303294688200004 -0.0654384390209
13 1 0.0607970396071 4.3747646729799996 4.4303270393799999
14 1 0.245237996193 6.6183791521800002 6.64388342199
15 1 2.4601170410700002 4.5960294019600002 6.5529656346299996
16 1 2.4186122190799999 6.5854427787300002 4.4780590549800002
17 1 4.3564072676899999 -0.0802761957486 0.0906705354958
18 1 4.4509902846099996 2.2849444981100002 2.1752704514499999
19 1 6.6010220727100002 0.061349232948 2.1002467934300002
20 1 6.73476191473 2.2602705367099998 0.118427436791
21 1 4.4227080577200004 -0.0503706337205 4.5098942826300004
22 1 4.58737599974 2.2098419975899999 6.7157876300400004
23 1 6.7158993739400002 0.11765034708 6.7065125836200004
24 1 6.5907543461099998 2.3550311850500001 4.3142604590399998
25 1 4.6057921885599998 4.3640600781799997 0.126796779272
26 1 4.4343568196999996 6.6178925413799998 2.22360774669
27 1 6.7635441859199998 4.38502927583 2.3027939207700001
28 1 6.70661272209 6.6638046297600004 -0.0437502858518
29 1 4.5453716852500002 4.5392131527300004 4.3571360582100001
30 1 4.4493871763200002 6.7987175307800004 6.62718107153
31 1 6.6747644247700002 4.5247281717099996 6.5755231572400002
32 1 6.85920528644 6.6631901828400002 4.5455464054599998
ITEM: TIMESTEP energy, energy_weight, force_weight, nsims
2 -43274.3847350400028512 1 1 500
ITEM: NUMBER OF ATOMS
32
ITEM: BOX BOUNDS xy xz yz pp pp pp
0.0 9.2888005897617454 0.1866376081673229
0.0 9.0963500590509483 0.1866376081673229
0.0 8.9117006130418996 0.182777185680629
ITEM: ATOMS id type x y z
1 1 -0.119623098224 -0.0777285486527 -0.0443927454338
2 1 0.169916378466 2.25143614428 2.2027086052099998
3 1 2.2243527366700002 0.0746836506237 2.2295640149999998
4 1 2.1372631751600002 2.2398073803399998 -0.0702152891302
5 1 0.080570691125 0.127707152297 4.4226568952500003
6 1 0.288006175404 2.4458194419899999 6.5971572944999998
7 1 2.2470777821799999 0.119801764597 6.5449454229499998
8 1 2.2731108240000002 2.1849611625500001 4.3993866626100005
9 1 -0.0448415790519 4.4651086916600002 0.143488182741
10 1 0.317272787548 6.8276840754099998 2.1392572968399999
11 1 2.2127960936100002 4.56216736809 2.3815789128899998
12 1 2.2348422758600002 6.8104298929700002 -0.158789572693
13 1 0.0384689601921 4.56014175439 4.5117088459600004
14 1 0.330209791486 6.9330363771099996 6.5573264486099996
15 1 2.2971260037099999 4.4886211308500004 6.6805886356400004
16 1 2.3070422535300002 6.6143292739900002 4.4687838576200002
17 1 4.49047730639 0.0369007299321 0.00423127545107
18 1 4.6459469679899996 2.2887298230700002 2.29146290512
19 1 6.7458502074800002 -0.0069193768694 2.1328141373
20 1 6.6353757129400002 2.35695553981 -0.024246955028
21 1 4.70156886955 0.0804710454326 4.3027740250899998
22 1 4.5423203851 2.28658744069 6.7729129628200004
23 1 6.9323500681299998 0.274003319935 6.8274944555700002
24 1 6.9102429263899996 2.3833142822600002 4.4268667826200004
25 1 4.5907250689300004 4.4471054314999998 -0.133899192881
26 1 4.5722141296399998 6.8992101013299996 2.23499747887
27 1 6.9405959056300004 4.4264008164400002 2.2713901906600001
28 1 6.7694200337500004 6.64612741991 -0.0569805225497
29 1 4.4868860414 4.51040885738 4.2992512298400003
30 1 4.73080877589 6.9750786376200002 6.5342736614700004
31 1 7.0429177404600001 4.6057995388400004 6.7543686050199998
32 1 6.8062358839900004 6.8000321069999998 4.37126579132
ITEM: TIMESTEP energy, energy_weight, force_weight, nsims
3 -43275.6776473599966272 1 1 500
ITEM: NUMBER OF ATOMS
32
ITEM: BOX BOUNDS xy xz yz pp pp pp
0.0 9.9779716501541404 0.3854877239889196
0.0 9.5685917710205732 0.3854877239889196
0.0 9.1914916205718349 0.3696701045135806
ITEM: ATOMS id type x y z
1 1 -0.0211032277508 -0.0884168516861 -0.0828098246064
2 1 0.279281434977 2.3389376745299999 2.3105663550700002
3 1 2.4168142026699999 0.10953945607 2.2847207997800001
4 1 2.4970692146800002 2.2680225318599998 0.0964720577512
5 1 0.251218327478 0.210260553188 4.6232531872599996
6 1 0.314802803942 2.6767923257100002 6.8657859596500002
7 1 2.50133098363 0.218684221892 6.9090181404899998
8 1 2.6371764922500002 2.55350379757 4.6476143166500004
9 1 0.266618961379 4.5957551932399996 0.0366106302739
10 1 0.335597049784 6.93122132272 2.2349461152100001
11 1 2.55196494545 4.74613289723 2.26686356986
12 1 2.6562074391300002 6.95706307777 0.0587023803839
13 1 0.288692234668 4.7388848013200002 4.6487485467200004
14 1 0.506749222224 7.1426338341399998 6.83448709239
15 1 2.8346043981300002 4.8001002113800002 6.9805794176499996
16 1 2.74399721754 7.1804600215800001 4.6533277478399998
17 1 4.6429124599199998 -0.0736199443657 0.0897264220509
18 1 4.8559967926800002 2.4371122618199999 2.3051231537299999
19 1 7.0936268151900004 0.182690799265 2.2364066432300001
20 1 6.9741754440800002 2.3974892947100002 0.0565883373112
21 1 4.8554807821 0.202254379115 4.4981790458799998
22 1 5.0319346163500001 2.5772787660400002 6.9167546189899998
23 1 7.1273918399699996 0.358102561664 6.99251181207
24 1 7.1858753307400001 2.49812041683 4.6968494606600002
25 1 4.8200983839799996 4.4997231595200002 -0.0780909128084
26 1 5.0524743984600002 6.9408643085900002 2.3722192042699999
27 1 7.1511789706000002 4.7835750388399996 2.2664232974099998
28 1 7.1311417989399999 6.82538189839 -0.0781763936804
29 1 5.0193945973699998 4.7250868477300002 4.5837334498900004
30 1 5.2525854560300003 7.2476566700899996 6.9815472817200002
31 1 7.3853941980400002 4.8935754199700004 6.8415939537100004
32 1 7.3932403408900003 7.1132765604000001 4.61492385755
ITEM: TIMESTEP energy, energy_weight, force_weight, nsims
4 -43271.601606399999584 1 1 500
ITEM: NUMBER OF ATOMS
32
ITEM: BOX BOUNDS xy xz yz pp pp pp
-0.5963124057194164 9.4948157079073994 -0.2981562028597082
-0.3076700081990314 9.4901347637634022 -0.2981562028597082
0.0 9.485140490701042 -0.3076700081990314
ITEM: ATOMS id type x y z
1 1 -0.120991362909 0.0441392375383 -0.0580651845419
2 1 -0.0156241451601 2.4772631339200002 2.2398893684900001
3 1 2.4477202774500002 -0.214696707365 2.3064077102299998
4 1 2.1363777708599998 2.2196404950700002 0.00127290585385
5 1 -0.333173701476 -0.0353439215471 4.7536261251100004
6 1 -0.248308828442 2.0418882117299999 7.0257858385700001
7 1 2.3264352058300002 -0.2961163278350001 7.1117648430599996
8 1 2.0865075910100002 2.2440485589599999 4.8672400864199998
9 1 -0.165788377169 4.8260331501899998 0.0577616600462
10 1 -0.474027718684 6.9591834709700002 2.3608040424299999
11 1 2.2453994068399999 4.7491707300500004 2.1982657264699999
12 1 2.1377180762300001 7.22086524799 0.00681317641447
13 1 -0.332884353834 4.5794672526599998 4.6017329823199998
14 1 -0.287408113776 7.0042517037799996 7.0741325481599997
15 1 2.04512262694 4.5482839714900002 7.26909012581
16 1 1.9593884994 6.9548131948899998 4.72785025582
17 1 4.5980867602400002 0.0739499841249 -0.135343469662
18 1 4.6160283239800002 2.3903033926999999 2.2271252149300001
19 1 6.8867250782399996 0.0582887334482 2.47080890779
20 1 7.0805401104400003 2.3818040531000002 0.16666530059
21 1 4.4160054035399998 -0.0967717493443 4.8988901032100004
22 1 4.4053752421599999 1.96180245274 7.2395799567200001
23 1 6.76366510068 -0.155240921796 7.1371584611800003
24 1 6.8706957518299996 2.0458607357299998 4.5732832519300004
25 1 4.5710990014800004 4.8377354185800004 0.00287589459678
26 1 4.3982225772200003 6.92874841062 2.4956267778800002
27 1 7.0701188837100002 4.6885420018800002 2.2430014430799998
28 1 6.9201916301599998 7.2799973598300003 -0.165716786541
29 1 4.4009333666700004 4.5448847063800004 4.5747439635599996
30 1 4.39786505959 6.7127369853000004 7.2565090354599997
31 1 6.8239611373700004 4.3884288007399999 6.9514612262000002
32 1 6.6660046480100004 6.9417085571900002 4.83509779084
ITEM: TIMESTEP energy, energy_weight, force_weight, nsims
5 -43272.5638342399979616 1 1 500
ITEM: NUMBER OF ATOMS
32
ITEM: BOX BOUNDS xy xz yz pp pp pp
0.0 9.2657327071885796 0.2737687649567896
0.0 8.9792005044922582 0.2737687649567896
0.0 8.7098605826855256 0.2653033974396556
ITEM: ATOMS id type x y z
1 1 0.0524510351903 -0.00158012384562 -0.0238397594009
2 1 0.0928800232912 2.2994708355500002 2.0667732695000001
3 1 2.2582433485700002 0.0486858059947 2.2326612741599998
4 1 2.2298765548100002 2.0702235192199998 0.123535436588
5 1 0.238612079352 0.122346405826 4.4062444349699996
6 1 0.273039820362 2.3985740624399998 6.6299676501900002
7 1 2.2778647035800002 0.305809972184 6.4861957235299998
8 1 2.29440762099 2.1826761743000001 4.39692662611
9 1 0.164114904314 4.47347252482 0.0765823201593
10 1 0.393730840639 6.7140792167900002 2.1420674012799999
11 1 2.4405976804499998 4.4446763529000002 2.2032036546799998
12 1 2.50433177045 6.6225123327700004 0.00841720926711
13 1 0.180521627153 4.5373602114700002 4.2859847769400004
14 1 0.431740342326 6.6145972608900002 6.5879765413399998
15 1 2.4119813672200001 4.6180775949 6.5770108268599996
16 1 2.54017615242 6.5603896761999998 4.3841588414899997
17 1 4.4056071244800004 0.110696581354 0.0211275088154
18 1 4.5111706215899998 2.2808239003300002 2.1239003740700002
19 1 6.7118876837599998 0.136506928278 2.2307111363700001
20 1 6.5382418261300002 2.2101674619299998 0.0649921086819
21 1 4.4200548292399997 0.0237185372368 4.3948423564799999
22 1 4.5289102648700004 2.3517855188599999 6.5054628061199998
23 1 6.62701815472 0.0784192832502 6.5885601019999998
24 1 6.6962857629299998 2.3235188134999998 4.2464768493399996
25 1 4.5635018382199998 4.4835862818400002 -0.0152631596851
26 1 4.51752069384 6.66612230371 2.1198685796099999
27 1 6.7333248283699998 4.4205635218900001 2.2615431718500001
28 1 6.7731361565099998 6.5793073364200004 0.0858374180145
29 1 4.5363771152999998 4.3819941351600003 4.34165820579
30 1 4.6476690338299998 6.809620807 6.5826696232800002
31 1 6.9378964227499998 4.5631659830300002 6.5091784326399998
32 1 6.8480989731 6.6075186329299998 4.4127898951900004
ITEM: TIMESTEP energy, energy_weight, force_weight, nsims
6 -43272.8199759999988608 1 1 500
ITEM: NUMBER OF ATOMS
32
ITEM: BOX BOUNDS xy xz yz pp pp pp
0.0 9.0643529897586586 0.1821278371997295
0.0 8.8765526891093138 0.1821278371997295
0.0 8.6963649736109102 0.178360695062179
ITEM: ATOMS id type x y z
1 1 -0.0118657972136 -0.00475207754546 0.0378596249126
2 1 0.164708961988 2.23010790889 2.1679211724499998
3 1 2.24240348309 -0.0375185387014 2.17246067497
4 1 2.2170754127999999 2.19256411259 0.0438722916554
5 1 0.0056722382389 0.0447568862048 4.4092501009199996
6 1 0.192392073129 2.2814937355099998 6.60465526524
7 1 2.3215054870600001 0.093285266 6.4362049364300003
8 1 2.3835047838399999 2.3046712437800001 4.27097876748
9 1 0.0443437561642 4.3181488004400004 0.0495397127087
10 1 0.138624499432 6.64249367505 2.1529921227000002
11 1 2.2508966321199999 4.3218363640700002 2.2504227173200002
12 1 2.2219549075699998 6.4364992983300003 -0.0546723073161
13 1 0.11861008972 4.5323046306499998 4.3815147841100002
14 1 0.356498991275 6.7462707575999996 6.49567589794
15 1 2.4656832571599998 4.5025201376900004 6.61765633088
16 1 2.3324614279100002 6.5649778894699998 4.3045276042699996
17 1 4.3573801469899998 0.00195181121124 -0.00356550963918
18 1 4.4307407166299999 2.18078227625 2.2082566524699998
19 1 6.5498931711 0.131379787772 2.2385930520500002
20 1 6.5598381958600004 2.2610921711400001 0.0445193012094
21 1 4.42685788987 0.164403202338 4.2687072769499999
22 1 4.6178087879199996 2.3158166484999998 6.4831009541800002
23 1 6.7134248552400004 0.11075077504 6.5507317149500004
24 1 6.6001339412100002 2.2440015471099999 4.3998719409399998
25 1 4.4475633129799999 4.3272737693799997 0.0137733028452
26 1 4.4833230624700002 6.54926412859 2.1883758925099999
27 1 6.7117510236499998 4.3412245056999997 2.2277695562000002
28 1 6.56651092154 6.56188376232 -0.0777420243181
29 1 4.5310723920399996 4.3683062638800001 4.34512484488
30 1 4.7048538495600002 6.6509143663900004 6.6056944808500004
31 1 6.78151919883 4.4136040110500004 6.4814912570300002
32 1 6.79467412226 6.5689487266100004 4.2557192558599999
ITEM: TIMESTEP energy, energy_weight, force_weight, nsims
7 -43274.7168089600018016 1 1 500
ITEM: NUMBER OF ATOMS
32
ITEM: BOX BOUNDS xy xz yz pp pp pp
-0.9656090458766482 9.2250940640920991 -0.4828045229383242
-0.5087731627287434 9.2124556852242936 -0.4828045229383242
0.0 9.1983874167765532 -0.5087731627287434
ITEM: ATOMS id type x y z
1 1 0.0626861389334 -0.0900985415011 0.133441926094
2 1 -0.182177979467 2.1178422668799999 2.23597712746
3 1 2.0638483058400001 -0.109668695502 2.2366596478099998
4 1 2.1517737100400001 2.42547325494 0.0808225508762
5 1 -0.176189895353 -0.253597018712 4.5591190939299998
6 1 -0.5982696164370002 2.0285480736600001 6.93496138142
7 1 2.00794350375 -0.338271456566 6.79856125393
8 1 2.0301465210299998 2.1522967202999999 4.5157119037099998
9 1 -0.179996591983 4.5432476942399998 -0.133043635919
10 1 -0.584275230557 6.6516204100999996 2.2211235714600002
11 1 1.96324439998 4.6133775520600002 2.22893392222
12 1 2.0629647045100001 7.0378926689099997 -0.119510048512
13 1 -0.516161137244 4.2733719466500002 4.6149735420000004
14 1 -0.592804316042 6.5153850805599998 6.8615628490300002
15 1 1.6315687407 4.2467629914899998 6.7743630561600004
16 1 1.6812914158700002 6.79116566079 4.5105405703
17 1 4.5458785795900002 0.12508440776 -0.0701119485682
18 1 4.3526592206699997 2.1551625466500002 2.3820530386800001
19 1 6.7594827225699996 -0.204851500849 2.4008297069100002
20 1 6.6985103171100002 2.2725773828700002 -0.0373252164598
21 1 4.4955979839799998 -0.332130874352 4.63424416364
22 1 4.1066745723100002 1.94458143947 7.0272120088200003
23 1 6.6386535905399998 -0.361815611995 7.0165989094199999
24 1 6.5411714730500004 1.97664103915 4.5783363649200002
25 1 4.47761174486 4.4923302278300002 0.0530379018451
26 1 4.1547459823199997 6.84359511178 2.3700417843900002
27 1 6.5078766876099996 4.5045050619099998 2.3532464487999998
28 1 6.6152022055700002 7.0334038055599999 0.0862312026773
29 1 4.2001505004500004 4.2901933699499999 4.6192967840900004
30 1 3.99983558487 6.50573645309 6.8439654140600004
31 1 6.3479894117400004 4.1742445473699998 6.91330193857
32 1 6.3937983237699996 6.5737392621000002 4.4802190060199996
ITEM: TIMESTEP energy, energy_weight, force_weight, nsims
8 -43274.5911737600035872 1 1 500
ITEM: NUMBER OF ATOMS
32
ITEM: BOX BOUNDS xy xz yz pp pp pp
-0.757181046272223 9.0422633245625992 -0.3785905231361115
-0.3947852167504031 9.0343332596269583 -0.3785905231361115
0.0 9.0257069404153256 -0.3947852167504031
ITEM: ATOMS id type x y z
1 1 0.0394234328594 -0.0728955449357 -0.0826339573223
2 1 -0.202195766055 2.28877945163 2.3587791543800001
3 1 2.0734938193399999 -0.193222990696 2.3738791620900002
4 1 2.2446366544399998 2.1266813135399998 -0.148055891509
5 1 -0.0786694193894 -0.34095179391 4.6596872810000002
6 1 -0.265674636171 2.07005306234 6.8537481862799998
7 1 1.83198157105 -0.175079782448 6.7640624441300004
8 1 2.0617491504899999 2.0136666399699998 4.61653627869
9 1 -0.326167808379 4.6006541615699996 0.0205018933152
10 1 -0.435070650565 6.8238505209299998 2.13729552663
11 1 2.0334629293300002 4.5112249098100002 2.1969211518199998
12 1 1.97165355648 6.7478164131699998 -0.0554512357298
13 1 -0.367072340912 4.3816527915599997 4.5441058830600004
14 1 -0.67258677228 6.4872895029300004 6.8235012371900004
15 1 1.86127563992 4.2388236308699998 6.6338946012099998
16 1 1.68953223995 6.72515955204 4.3778821460500002
17 1 4.5534188327400004 -0.0481602213307 -0.00464733650362
18 1 4.3297525875799998 2.2783973761900001 2.2891277739200002
19 1 6.5777281945999998 -0.0787648641183 2.1051549842099999
20 1 6.7306642018499998 2.2739772234200002 0.149284290224
21 1 4.4066741159899996 -0.335622203843 4.6363215308700002
22 1 4.1466995391300001 2.0828899827699998 6.7353552806300004
23 1 6.5867523398600004 -0.389374777653 6.8663372423200002
24 1 6.4049130066000002 2.0265743709900002 4.5686296313900004
25 1 4.4673562217600002 4.5614107203999996 0.102647559892
26 1 4.2688956210600004 6.77313512962 2.2486709451300002
27 1 6.4711102468400004 4.53535895001 2.3260393050200001
28 1 6.6389786294700004 6.8523324375600004 -0.149173274028
29 1 4.0651225391499999 4.2458453242800003 4.3685983038899998
30 1 3.9062897791700002 6.3558881852800005 6.7910655541500002
31 1 6.2468043039300003 4.37285222572 6.70710030506
32 1 6.2763793316000003 6.56610996657 4.4313396031199997
ITEM: TIMESTEP energy, energy_weight, force_weight, nsims
9 -43275.7172681599986400 1 1 500
ITEM: NUMBER OF ATOMS
32
ITEM: BOX BOUNDS xy xz yz pp pp pp
0.0 9.385008170701413 0.1885706836619067
0.0 9.1905643578837033 0.1885706836619067
0.0 9.0040024285189499 0.1846702773360441
ITEM: ATOMS id type x y z
1 1 -0.0152248905224 -0.0941038295063 -0.0365499470581
2 1 -0.0130111427303 2.2330959685499998 2.24885495335
3 1 2.3998341982500002 0.136336217829 2.2910387047300001
4 1 2.35056291115 2.13133867645 0.0269696884741
5 1 0.0762917759791 0.0125811497007 4.4778704877499998
6 1 0.136868794769 2.2710172344399999 6.8059507580699998
7 1 2.2683844677599998 0.124198186954 6.69598397601
8 1 2.4125292785600001 2.35845456264 4.4501246542699997
9 1 0.081045874429 4.42685621528 -0.0846601328341
10 1 0.266023536069 6.7870269520999998 2.36134195569
11 1 2.27359914054 4.6041556025999998 2.2468569652100001
12 1 2.3001403085200001 6.6439360482099996 0.121006589437
13 1 0.155942476748 4.6303139826899998 4.45439165102
14 1 0.401181225569 6.85691107268 6.6514654868000004
15 1 2.5559633539100002 4.73164166771 6.8442321748000002
16 1 2.5875148064300002 6.91909995481 4.3815510721699998
17 1 4.5129480574900002 -0.124892307165 -0.0485387762917
18 1 4.5239388455 2.4224383487300001 2.1270803225099999
19 1 6.9177436623800004 -0.0031880319844 2.18291053996
20 1 6.91505453209 2.3689959138500001 -0.0708281843035
21 1 4.5494591779300002 0.159102068585 4.3687743927299998
22 1 4.8236476997400004 2.2661515901699998 6.7126972053199996
23 1 6.9665125310300002 0.0764457711893 6.7963840054900002
24 1 6.8003063938199998 2.47457733211 4.3676110756100002
25 1 4.65378004039 4.4921090587399998 -0.127573208408
26 1 4.5758850888299998 6.7036406462400002 2.3113364274000001
27 1 6.7843943393600004 4.5556472149499996 2.17383720672
28 1 6.8793963520499998 6.7328881442000004 0.0192217443844
29 1 4.7602103684800002 4.59333925453 4.4317276765100005
30 1 4.6503710320699998 6.8080156705399998 6.6686928446499998
31 1 6.9421502507400002 4.6252317671999998 6.6957786847599996
32 1 7.0035879796399998 6.9632077635599998 4.4985103625200002
ITEM: TIMESTEP energy, energy_weight, force_weight, nsims
10 -43273.8208838400023520 1 1 500
ITEM: NUMBER OF ATOMS
32
ITEM: BOX BOUNDS xy xz yz pp pp pp
0.0 9.0282560913658401 0.0925610828009707
0.0 8.9342447346010428 0.0925610828009707
0.0 8.842178867299916 0.0915971812030625
ITEM: ATOMS id type x y z
1 1 -0.130755766592 0.0600100261563 0.0647309388338
2 1 0.106532530568 2.3261702281500001 2.0836125865300001
3 1 2.2353788735100002 -0.103209044929 2.3435558450900001
4 1 2.1092615544900002 2.31173161135 -0.0761391180084
5 1 0.0258320887365 -0.0907007605228 4.3135517384800002
6 1 0.00106293418693 2.3378360329899999 6.5238922009799998
7 1 2.3584872784200002 0.036919347568 6.6430034240599998
8 1 2.13600416842 2.1041322554800002 4.3517419932300001
9 1 0.186081738 4.4999450554299996 -0.160609336946
10 1 0.15301024439 6.5466127390200004 2.3259342668300001
11 1 2.2827561964499999 4.3162527391400003 2.2905726250999998
12 1 2.35626888982 6.6046328821099998 0.119949461642
13 1 0.157756767871 4.3397435123400001 4.4764388207100004
14 1 0.112276582481 6.7149352467699996 6.6447798178
15 1 2.4295858095999998 4.58558114563 6.5136308524000004
16 1 2.2226619697699999 6.80952689093 4.5384189576900004
17 1 4.2768609488699996 -0.00587858337682 0.0656434516929
18 1 4.3525706706999996 2.0692563241399999 2.3451951850500002
19 1 6.5018778576000004 -0.092104924432 2.3446195592099999
20 1 6.5344304622399996 2.2781977210500002 -0.00383043188531
21 1 4.52195829272 -0.110772920045 4.3346986934600001
22 1 4.4127021149500001 2.1191328084799999 6.6098708956300004
23 1 6.7094236377699996 0.04628073317 6.6830063254800002
24 1 6.6808788650400004 2.1961713864100001 4.3120910105299997
25 1 4.3512962532400002 4.5572052006700004 0.0764830787664
26 1 4.3898579474800004 6.63808888125 2.22980209818
27 1 6.6454812696900004 4.5288204472800002 2.2261432045600001
28 1 6.8229612841299998 6.6561413700700004 0.0528620821403
29 1 4.3689516256500003 4.58562863526 4.5785571444400004
30 1 4.5944391746799998 6.6665312619600004 6.63058900493
31 1 6.6589795019000002 4.4982880742100004 6.5288889162499998
32 1 6.7399472182300002 6.80793965202 4.5700041048299998
ITEM: TIMESTEP energy, energy_weight, force_weight, nsims
11 -43274.8091004800007808 1 1 500
ITEM: NUMBER OF ATOMS
32
ITEM: BOX BOUNDS xy xz yz pp pp pp
-0.5769832507939088 9.187046219889 -0.2884916253969544
-0.2976970457092832 9.1825170061025947 -0.2884916253969544
0.0 9.1776846197909325 -0.2976970457092832
ITEM: ATOMS id type x y z
1 1 0.0436172945458 0.0163893484529 -0.00717419606729
2 1 -0.115778212903 2.2618596283999999 2.2308409092099999
3 1 2.1330690569800002 -0.041668713641 2.14504607784
4 1 2.2668291831200001 2.1757054275500001 0.0340317723386
5 1 0.00720867096627 -0.148144553343 4.6819315649900002
6 1 -0.161364071334 2.1408519365299998 6.97471909208
7 1 2.2046867058899999 -0.106502593877 6.7448401188
8 1 2.0743051385000002 2.1831350761300001 4.4799151244499998
9 1 -0.142711550982 4.64928218753 0.0637426907583
10 1 -0.415815056838 6.6918067380900004 2.2453719372699999
11 1 2.1409104428800001 4.5706683514600002 2.1868834709499998
12 1 2.1407382506200001 6.7937402122500004 -0.0550293969803
13 1 -0.276492847343 4.2942148375700002 4.7315286904500002
14 1 -0.551008728209 6.52465682198 7.0010572114
15 1 2.0691853142999999 4.4801970837800004 6.9302532101
16 1 1.8084524420000002 6.8564915067200004 4.4784209973899998
17 1 4.5629177731399998 0.0181161377714 -0.0825183979535
18 1 4.3463752543399999 2.2402320090100001 2.24460009399
19 1 6.9362205644000002 -0.143231918254 2.2920808453700001
20 1 6.8739951808899998 2.2079297493599999 -0.02408958659
21 1 4.3539195146300003 -0.225170797478 4.6583669419599998
22 1 4.3282556880299996 1.94207962729 6.7801310694700004
23 1 6.8096572173099998 -0.121629798742 7.0376633242800004
24 1 6.6045928531099998 2.3051017920599999 4.48416347466
25 1 4.5594294148200004 4.5819265514499996 0.117728584997
26 1 4.1524978838499998 6.8940092958900002 2.2720147557199999
27 1 6.7604187913600002 4.55293149297 2.2870652407200001
28 1 6.64758844104 6.84427303978 -0.128987768489
29 1 4.3471516597199998 4.3581795482799999 4.49140742113
30 1 4.3014111735 6.5852243466499996 7.0257534429400002
31 1 6.6044458609600004 4.4612071118400004 6.9947567309099998
32 1 6.6167528226999996 6.69041117062 4.6631017094600002
ITEM: TIMESTEP energy, energy_weight, force_weight, nsims
12 -43274.5400336000020608 1 1 500
ITEM: NUMBER OF ATOMS
32
ITEM: BOX BOUNDS xy xz yz pp pp pp
0.0 9.0836862590372771 0.0931293737629888
0.0 8.989097707162399 0.0931293737629888
0.0 8.8964665893400562 0.092159554164234
ITEM: ATOMS id type x y z
1 1 -0.122975238798 0.0257774193667 0.0061287758334
2 1 -0.00848759975925 2.1849477012200001 2.1771264004600002
3 1 2.2558944902900002 0.0900039844916 2.2240694960599998
4 1 2.2420799944300001 2.21931079279 0.0447287650712
5 1 0.0770921831456 -0.103916251525 4.5184130713600004
6 1 0.171877534813 2.32493400652 6.5346877972900002
7 1 2.2514068257100002 0.127617282636 6.62883020674
8 1 2.4078868347200002 2.1601828740500002 4.5121508485300002
9 1 0.145092713494 4.58650216781 -0.099477620462
10 1 0.0688339257165 6.6885357794900004 2.3639931225800002
11 1 2.3993094826100001 4.6066599353799998 2.1149810227399999
12 1 2.35266647604 6.6404757219099998 0.0496778694349
13 1 0.148546150655 4.4215431912399996 4.391629526
14 1 0.0210682464526 6.68350221641 6.5947238227799998
15 1 2.3873935660000001 4.61609903031 6.5749398603799998
16 1 2.4622500073000002 6.5771633128599998 4.48744447116
17 1 4.52529294015 0.146347663378 -0.141008995441
18 1 4.5264570116099998 2.1585101340800002 2.18877632346
19 1 6.6734782202799998 0.0670176387154 2.3659307730000001
20 1 6.5461675246700004 2.1402391623899999 -0.055765721522
21 1 4.3480486411400001 0.0940239325333 4.57932628845
22 1 4.5032246038299998 2.25663990826 6.68950855712
23 1 6.8138026844899998 0.129241439988 6.5459960959799998
24 1 6.7133506394199998 2.3417554252900002 4.3428982406100003
25 1 4.56687115143 4.5824491937399996 -0.0415456093256
26 1 4.4245036436099996 6.62908671848 2.1128921323899999
27 1 6.7697811514400002 4.3463608545700003 2.2572470889099998
28 1 6.7547783629899998 6.7450951672799998 -0.0943176698402
29 1 4.4992506617799998 4.5990434874900004 4.52459433635
30 1 4.4841415188599996 6.8586758851200004 6.6695368792699998
31 1 6.79195675338 4.4025032696600004 6.7897530530000002
32 1 6.7494451047200004 6.6474033371500002 4.4522776283800002
ITEM: TIMESTEP energy, energy_weight, force_weight, nsims
13 -43275.0971465600014208 1 1 500
ITEM: NUMBER OF ATOMS
32
ITEM: BOX BOUNDS xy xz yz pp pp pp
-0.3846432511343127 9.187046219889 -0.1923216255671564
-0.1963914870425672 9.1850342567668442 -0.1923216255671564
0.0 9.1829304231824889 -0.1963914870425672
ITEM: ATOMS id type x y z
1 1 -0.085607304554 -0.0772378535261 -0.0137440919644
2 1 -0.0214793078645 2.0964640435800002 2.43108624535
3 1 2.3060126744699998 -0.195270105022 2.4102198725499999
4 1 2.2900296019700002 2.3347574296000002 0.118716924511
5 1 -0.0912429346512 -0.185153989554 4.5259202091099998
6 1 -0.275429016604 2.0859016118999998 6.8643837450399996
7 1 2.0699738017499998 -0.2766315867560001 7.0406418298800002
8 1 2.1406762076399999 2.0945939551400001 4.57679456195
9 1 -0.161945350468 4.4472994778199997 -0.141192146722
10 1 -0.30469695134 6.97578604064 2.3862331399999999
11 1 2.2336419628300002 4.5714228268200002 2.20273982428
12 1 2.2850868807500002 6.91009052325 -0.0524409607677
13 1 -0.330178679836 4.4195411928099997 4.6349822005699998
14 1 -0.224080689424 6.8806157398299996 6.9370749039800002
15 1 2.1436319612900001 4.5360639566899996 6.75532726334
16 1 1.96689961409 6.8332249590899998 4.6322741543900002
17 1 4.5896584789099998 0.0294467751025 0.107604660406
18 1 4.5326961939299998 2.1998131670999999 2.31156122297
19 1 6.6952494253900002 -0.0847320353154 2.33777389786
20 1 6.9523527960699996 2.3029442197700001 0.0527458340577
21 1 4.5731071270100002 0.00316812752625 4.7145256621899998
22 1 4.5501450804500002 2.1596958792800001 6.88277164492
23 1 6.6046210742499998 -0.130525920288 6.8044182910900002
24 1 6.7287541295000004 2.0900655175299998 4.5446368578999996
25 1 4.4697466598500002 4.7440099484599996 0.0737664800894
26 1 4.5020131542800002 6.8195034522500002 2.2498813159000002
27 1 6.6599576030699996 4.6849225583500004 2.4324545019900002
28 1 6.7874597126799996 6.80040843915 0.0702136043087
29 1 4.3285216315100002 4.6223804396699998 4.5288293614699998
30 1 4.31754427035 6.7240073378999998 6.74363371974
31 1 6.6175699565399998 4.3282418414099997 6.8267778083700002
32 1 6.68446569257 6.8078138889000002 4.65317817721