ITEM: TIMESTEP energy, energy_weight, force_weight, nsims
0 -29708.7399554000007810 1 1 40
ITEM: NUMBER OF ATOMS
22
ITEM: BOX BOUNDS pp pp pp
0.0 10.0000212275277001
0.0 10.0000212275277001
0.0 10.0000212275277001
ITEM: ATOMS id type x y z
1 1 9.3324548104500007 6.49520078768 6.4326526549000001
2 1 1.77621677046 3.2553559103000001 5.7061741127700004
3 1 7.0941870591700003 0.898267906797 4.8926383858399998
4 1 3.5221784767000002 5.6487709909200002 0.311969662233
5 1 9.9186010546900008 0.448213951445 0.431838916685
6 1 8.4045638407700008 5.1203218691499997 0.484821029153
7 1 2.9037431639200002 9.4977471613300004 5.8298563753200004
8 1 5.8505224191899998 3.97751444326 3.0113913924300002
9 1 4.0381335719400004 0.273359580274 1.3153887922400001
10 1 4.0504655981199997 2.62635257509 8.5976362506200008
11 1 6.42721964337 7.7662914858800002 2.8341180161200002
12 1 6.1401590340099999 4.78128814947 6.4929367828700002
13 1 3.8825312416400002 6.4849167658500004 4.6283918249099996
14 1 0.65962140021 7.2731244390100001 2.6264625753200002
15 1 1.44607206965 7.6917373276200004 8.6442593495899996
16 1 1.5212352292 3.49878842705 2.2671848126600001
17 1 5.6514059965100004 8.1728013488000002 8.2497085120500007
18 1 8.4677659749400008 2.4484701974899999 8.0058559944199992
19 1 0.097024205958 0.342497727036 3.8255411206600002
20 1 8.97329704805 4.0286865518899999 4.2381429965099997
21 1 0.99693411624 4.4053563514600001 8.6698814039799998
22 1 7.0063388726899998 1.82643687707 0.852011808607
ITEM: TIMESTEP energy, energy_weight, force_weight, nsims
1 -29708.3401141999993356 1 1 40
ITEM: NUMBER OF ATOMS
22
ITEM: BOX BOUNDS pp pp pp
0.0 10.0000212275277001
0.0 10.0000212275277001
0.0 10.0000212275277001
ITEM: ATOMS id type x y z
1 1 1.4188630118900001 3.4859383997700002 0.927366968567
2 1 4.7515290862999998 8.8543457955499996 9.0550522216000005
3 1 0.907141925634 8.8764128423899998 8.9974850994000004
4 1 8.8094657002800006 0.069041146557 5.3142582808299999
5 1 5.6182809261999998 7.0528249713699998 2.1524515691100001
6 1 3.3983282138000002 1.5506772917 4.9050624122100004
7 1 6.4899467765200002 2.61271254613 5.5290817368500004
8 1 7.4305277731399997 1.8485959241000002 0.959296036344
9 1 0.75205359642 6.67717917397 5.3548123669200001
10 1 7.9621879017200002 4.7491170811799996 8.2274144647299998
11 1 0.781123658129 2.52861136761 6.70377623043
12 1 9.1957815203299997 5.99145471835 2.5608674360800002
13 1 1.88789800753 8.0382770632400007 2.3856130640600002
14 1 3.3032580119900002 5.9703796736100002 7.3319775639399998
15 1 4.9461504994299998 8.5009740454300006 5.6467339865900002
16 1 5.3417363391599997 4.3279591871700003 0.154058327027
17 1 3.5128914569799998 1.88926001042 8.3944638193299994
18 1 4.68147493759 0.168287357232 2.2089266890000001
19 1 3.1500896868499999 4.7620131085599998 3.6341137143100002
20 1 7.94817487197 7.7430234364899998 9.8367568809599994
21 1 7.3365635736800004 6.30274437914 5.2114480625899997
22 1 9.4180589921699998 2.74643983 3.3783131713099999
ITEM: TIMESTEP energy, energy_weight, force_weight, nsims
2 -27001.2782759999981860 1 1 40
ITEM: NUMBER OF ATOMS
20
ITEM: BOX BOUNDS pp pp pp
0.0 10.0000212275277001
0.0 10.0000212275277001
0.0 10.0000212275277001
ITEM: ATOMS id type x y z
1 1 9.9056980272999998 0.99450311108 7.4104867305999998
2 1 3.1965487854700001 5.0303586781899998 6.6275090685300002
3 1 5.7811122718499998 3.2084008106300002 1.5046991941000002
4 1 3.4891074065000002 6.2004581620100003 1.6675645398200002
5 1 5.4943986632300002 9.7631667247500006 9.1731784723499992
6 1 8.1746783527800009 4.8167362247199996 5.3391613336999999
7 1 5.6166059226399998 1.60495140691 4.5718887049700002
8 1 8.39785682654 8.4892400205200006 1.92435008491
9 1 3.21696682881 0.47441800707 6.7383213037600004
10 1 9.2367826073600004 5.27035618764 2.16916660459
11 1 0.650771381424 9.2145725602200006 4.6115107890799996
12 1 3.0550434850900001 9.95633013478 2.16231559005
13 1 9.05690222552 1.91255005986 3.6844708212000002
14 1 0.20484743484 7.3408505827799999 7.9586168941400004
15 1 5.7574342215799996 7.8027905633600004 4.5379466329199998
16 1 6.3080783904600004 6.1890121377099998 9.9891292044100002
17 1 8.2819685805300001 3.6034386491900002 9.3038357496999993
18 1 1.3922599554199999 3.1747747392500001 0.337186715763
19 1 1.79888181857 3.91509931077 3.64251473214
20 1 5.2916702328799996 2.9276472146599998 8.0726781362600004
ITEM: TIMESTEP energy, energy_weight, force_weight, nsims
3 -29708.6362025200019162 1 1 40
ITEM: NUMBER OF ATOMS
22
ITEM: BOX BOUNDS pp pp pp
0.0 10.0000212275277001
0.0 10.0000212275277001
0.0 10.0000212275277001
ITEM: ATOMS id type x y z
1 1 9.6885285663099996 0.708008502924 0.452579960713
2 1 3.4944334177999998 8.8665318214200006 9.5888413546999996
3 1 5.2664101792600002 7.88259773277 5.7387681819600004
4 1 9.6516194879599998 6.1959071523500002 5.0776867786500004
5 1 6.1092369683700003 4.47651650252 2.8260429989800002
6 1 2.7431768230700002 6.8886416228499998 2.83385901557
7 1 7.2010102859299998 0.891659892769 4.5691286991100002
8 1 4.3102271495300002 5.6666170288000002 9.0239161555000003
9 1 9.5071211812200006 6.7547133385600002 8.3710727696799996
10 1 5.82613536742 3.51479046102 6.1737471053100004
11 1 5.3122972766699999 1.3226508076500001 1.2026495529200001
12 1 2.7575318535500002 3.6176666794000002 5.0546307297100004
13 1 9.3207307855699995 2.6490236232100002 6.2670093032800001
14 1 9.6482634808299998 4.4030093464800002 2.0974464523499998
15 1 7.0844060384100001 9.3317368089299997 8.2632945408899996
16 1 9.3320528096000004 8.0637691173500006 2.3777410473499998
17 1 3.24033087841 0.469148995885 3.8741232237899998
18 1 1.91174905816 2.3142409125499999 8.1902403858199993
19 1 1.33662283731 9.3009717436199999 6.83996751953
20 1 6.1967901542300004 7.6115781574600004 1.00455213241
21 1 2.8205789873799998 3.65689876268 1.49698417772
22 1 7.6577642555100002 3.6602477697800002 9.5730463211700006
ITEM: TIMESTEP energy, energy_weight, force_weight, nsims
4 -29708.7445155600016742 1 1 40
ITEM: NUMBER OF ATOMS
22
ITEM: BOX BOUNDS pp pp pp
0.0 10.0000212275277001
0.0 10.0000212275277001
0.0 10.0000212275277001
ITEM: ATOMS id type x y z
1 1 1.72942267113 9.7709697413099992 5.4552375801000004
2 1 7.5910101138000004 8.7229695166700002 2.6916387136700002
3 1 7.6801493030200004 7.3954506986800004 8.7689626142999996
4 1 7.1160271055299997 5.2213620836399999 4.0077755074999999
5 1 4.4172153766399998 3.7108478772 7.5384750022800002
6 1 3.4751753769199998 0.434956923304 2.40121709718
7 1 5.65108599583 4.2910491088200003 1.23790362776
8 1 5.2735501944200003 0.22973048766 7.2327893533900003
9 1 8.630256319860001 1.79149380289 5.3175672878600002
10 1 0.785164666707 5.0297836769600002 5.7449771951399998
11 1 1.6772615604000002 5.9344555973600004 8.7809826398199996
12 1 2.3444839767499999 5.8553954295299998 2.9402622414400002
13 1 4.96086253066 6.95422476207 5.9483146267700002
14 1 7.0296939222699999 1.8236278711 9.5435542585600004
15 1 0.136925290658 2.79450293203 0.7200985285880002
16 1 0.95250102192 8.7855456494999996 0.267084566953
17 1 4.7875871628400004 7.8402986429799998 0.662564406457
18 1 2.64886062286 1.1704324845300001 8.8887228685200004
19 1 4.3312231940999997 3.2706519427699998 4.04718659116
20 1 7.9125257962999998 4.4419374291100002 7.1767792344999997
21 1 9.1872915023099999 6.0822659111200004 1.35081786745
22 1 9.05450922044 7.7543814606000004 5.4366005405299998
ITEM: TIMESTEP energy, energy_weight, force_weight, nsims
5 -31062.9812841799982842 1 1 40
ITEM: NUMBER OF ATOMS
23
ITEM: BOX BOUNDS pp pp pp
0.0 10.0000212275277001
0.0 10.0000212275277001
0.0 10.0000212275277001
ITEM: ATOMS id type x y z
1 1 1.77658477124 6.2787123281300002 7.62596818801
2 1 8.9342919652500008 1.96346316794 3.7491049584099998
3 1 6.3766915361100001 6.9137916762399998 8.5663351841700006
4 1 3.13994266531 3.2323808615299998 0.359127762338
5 1 6.6359000863500004 8.2782295726000008 4.85859231357
6 1 5.7311801658499998 3.60693165661 3.4299012808199998
7 1 3.197271787 8.4883660186600008 4.4489024438999998
8 1 5.7564182194300004 1.1653164736699999 7.07476601795
9 1 7.9957409729500002 1.83926190429 0.180264382656
10 1 4.2100209368100003 8.6583853795699994 0.624858326417
11 1 8.8531217929500006 5.0092346333400002 0.3354097119900001
12 1 9.4840911323399998 5.8445744065599996 3.4776783822400002
13 1 1.6355694719 0.108294229881 2.1135844866100002
14 1 9.9271080727500002 8.8946038810000002 6.0776599013399997
15 1 7.7336304165499996 3.9731914340899998 6.1550890657000004
16 1 0.856760818688 2.7213637767700002 7.2568694045099998
17 1 2.77270688576 5.5244647270499998 2.77312588665
18 1 2.6024285243 2.0166772809000002 4.5710157031199996
19 1 8.7898256585900008 8.2765235689800001 0.734447559047
20 1 4.3310131936499996 4.7226960250900004 6.3490014773299999
21 1 2.76656987273 0.143761305169 8.0577041044800009
22 1 6.1413580365599998 0.494251049171 2.54828140936
23 1 6.3733505290199997 6.4971827918800004 2.0217632916900001
ITEM: TIMESTEP energy, energy_weight, force_weight, nsims
6 -28354.9188948900018669 1 1 40
ITEM: NUMBER OF ATOMS
21
ITEM: BOX BOUNDS pp pp pp
0.0 10.0000212275277001
0.0 10.0000212275277001
0.0 10.0000212275277001
ITEM: ATOMS id type x y z
1 1 5.4453145590299999 7.3756436566300003 1.7784047751100002
2 1 1.97246718705 2.65799564226 1.60980841722
3 1 8.48224300567 0.76974763398 1.0875893086799999
4 1 9.3086797599800004 7.0229009078500004 1.8859280033500002
5 1 5.1009728280799997 0.861726829229 0.817179734667
6 1 0.394457837335 6.7565983425600002 7.5672100632800002
7 1 5.0105676361700002 1.30615577264 7.4839508865399998
8 1 0.444722944035 2.1081514750700001 8.3650977569999992
9 1 3.65111975041 5.83154137889 5.07979078312
10 1 7.6617702640100004 2.9127901831199998 5.02755467223
11 1 2.54694940653 0.499928061221 4.1326667726100004
12 1 7.1726992258299998 7.9782639358500002 4.5970797584399996
13 1 2.3037178902100002 8.4008338328600001 0.335910713054
14 1 2.76080486049 4.4746134984800002 7.9492358742300002
15 1 6.9635637818899996 4.6364708420599996 8.2419704956299995
16 1 5.8744004698700004 8.0386710640800008 7.6436022254399996
17 1 7.1772652355300002 4.3021961324799998 1.5179232221700002
18 1 9.6561884976600006 9.8442378968399994 5.6242849389399998
19 1 0.802113702685 3.6957098450600002 5.2378581186500002
20 1 4.5737937090100004 3.0348344421900002 3.6138986714
21 1 2.6000935193400002 9.1718414695099995 7.1199121137799999
ITEM: TIMESTEP energy, energy_weight, force_weight, nsims
7 -29709.4114015600011968 1 1 40
ITEM: NUMBER OF ATOMS
22
ITEM: BOX BOUNDS pp pp pp
0.0 10.0000212275277001
0.0 10.0000212275277001
0.0 10.0000212275277001
ITEM: ATOMS id type x y z
1 1 1.32676081638 6.43125565194 3.0777795333500002
2 1 5.6805030582800002 4.2963531200800001 9.4324840227899998
3 1 6.0248397892199996 5.3191682912599996 3.3492121095299998
4 1 6.74402431587 0.10217421689 8.7988266776900002
5 1 2.41332912289 9.4731451091000008 0.412854876387
6 1 9.3182807803600003 9.9103200371100008 2.60060952044
7 1 1.1627014681200001 5.6119519127600004 6.6964582148999998
8 1 8.53756912311 7.92797482909 5.12073687004
9 1 1.6212544415200002 1.82165086691 5.84643641051
10 1 9.4887281421799994 5.3898654413299996 0.346210734918
11 1 5.3538693649200005 8.4712479823300004 2.4937712936500002
12 1 3.6270056992200002 1.2446826421499999 3.0780595339499999
13 1 8.1129662217800007 2.5814004796600002 5.99095371729
14 1 4.1994109142899996 9.1204613604400002 5.8214943575699998
15 1 9.7208196348500008 8.9391019754599998 8.0572381034900005
16 1 9.3709408921499993 3.55189253977 3.07923153643
17 1 2.1577225803000002 3.7472739545199998 1.3040577681900001
18 1 4.60075076624 2.88177411728 6.6614671406200002
19 1 6.1814311216200002 6.9156886802699998 7.48381888626
20 1 9.3737878981900007 1.99077222591 9.4372840329799992
21 1 6.67949517889 2.2105786925 1.82714187856
22 1 3.31082502805 6.6737741667400004 8.9819920665099992
ITEM: TIMESTEP energy, energy_weight, force_weight, nsims
8 -31063.978551069998505 1 1 40
ITEM: NUMBER OF ATOMS
23
ITEM: BOX BOUNDS pp pp pp
0.0 10.0000212275277001
0.0 10.0000212275277001
0.0 10.0000212275277001
ITEM: ATOMS id type x y z
1 1 7.8681617021300002 8.4251778845299992 2.0377123255499998
2 1 4.6312468309700004 6.3830295495599998 0.369421784189
3 1 1.03560119832 3.8513741755000002 9.4253550076600004
4 1 2.1255475119999998 5.2791112062199997 6.30827839089
5 1 0.256904545344 8.66247638826 6.6841491887700002
6 1 3.8203661096800002 9.7284856511300006 5.9193025651899998
7 1 6.2093121808099996 5.1544209415399998 3.2778959581499998
8 1 9.2801666994600005 1.51622821857 5.3142142807399999
9 1 1.64318648807 9.4076009699699999 1.8118308460600002
10 1 7.2012062863499997 9.4101159753099992 7.9944679702399996
11 1 6.0152357688300002 1.9158300668199998 0.0272290578004
12 1 1.6545525122 6.2444292553500001 3.00234337322
13 1 7.3001284963400002 5.2591831639200004 6.4921437811900002
14 1 9.2665166704799997 3.98491045896 2.3505299895800001
15 1 3.2648329304199999 2.48995028554 1.6787925636500002
16 1 4.88077836066 9.8343988759500008 2.79839694029
17 1 5.9357806001700002 2.1086324760999999 4.9920495968600002
18 1 8.4781619970000008 6.3612935034199998 9.5020181703900004
19 1 3.6393267253700002 2.6475586201 7.9143208001099996
20 1 3.8283111265400002 9.6549294949799994 9.2082565468100004
21 1 9.13563339265 1.02366417298 0.393158834577
22 1 1.69889160632 7.1125350981200004 9.1870975019000003
23 1 6.4927077823800002 7.9962799740900002 4.9426894920900004
ITEM: TIMESTEP energy, energy_weight, force_weight, nsims
9 -28355.7164530500001554 1 1 40
ITEM: NUMBER OF ATOMS
21
ITEM: BOX BOUNDS pp pp pp
0.0 10.0000212275277001
0.0 10.0000212275277001
0.0 10.0000212275277001
ITEM: ATOMS id type x y z
1 1 7.5443920148499998 7.53130198706 4.7319050446400004
2 1 5.7125351262699998 9.4013989567999996 0.382926812857
3 1 6.8534275481 4.16011183087 0.6516553833
4 1 3.77071800429 7.2900064748500002 8.0538760963500007
5 1 2.98015032611 1.1759194961799999 6.2338142328200004
6 1 1.28968573768 4.2190549559899999 0.869027844727
7 1 9.0542732199400007 1.1287933961400001 8.9914050864899994
8 1 4.4106923627899999 4.0077855075200004 8.50191004741
9 1 9.0762872666700005 8.0656511213499993 1.71710064497
10 1 6.0078057530600004 2.95658427608 5.2596701649600002
11 1 1.27938471581 3.8550701833400002 4.4897425305900002
12 1 3.55714155092 0.946717009642 2.49955830593
13 1 4.2344649887000001 8.3390357016699994 4.8271192467599998
14 1 4.1622388353900002 6.2010731633200003 1.88087499262
15 1 9.3056807536200008 8.1969334000299998 7.6061831460100002
16 1 8.7971906742199996 1.1509614431999999 4.5095725726899998
17 1 2.1405435438399998 0.102653217907 9.65292249072
18 1 1.0716152747700001 7.5018659245699998 4.6419258536400002
19 1 8.9433179844099992 3.8192181072400002 6.9501097533299996
20 1 6.3365514509000001 9.9258540700900006 7.1650482095900001
21 1 6.8035354421900004 6.1364790262 8.0232930314300006
ITEM: TIMESTEP energy, energy_weight, force_weight, nsims
10 -28355.2529870400012453 1 1 40
ITEM: NUMBER OF ATOMS
21
ITEM: BOX BOUNDS pp pp pp
0.0 10.0000212275277001
0.0 10.0000212275277001
0.0 10.0000212275277001
ITEM: ATOMS id type x y z
1 1 2.1984616667800001 0.701393488882 2.6611736490000002
2 1 9.5203152092300006 6.4120326111299999 2.517962345
3 1 7.0390799421899999 3.9883664663 3.2188778328700001
4 1 4.5001645527200004 6.4050225962500003 3.6705187915900002
5 1 8.2880945935400004 9.9419161041899998 0.234209497168
6 1 1.81568485424 3.6888238304400002 0.366258777475
7 1 4.3368722060899998 6.0062507497600004 8.9434129846099992
8 1 1.93784411356 1.60834241411 7.5617430516799998
9 1 2.8918631386999998 3.3839041831799999 4.49067453257
10 1 3.5541215445100002 8.9899810834699992 6.2644922979400004
11 1 7.3225265438799996 9.07114325575 5.8149703437199998
12 1 1.16130746516 8.7223385153299998 9.3862369246200004
13 1 9.6037273862999992 4.7650771150600004 7.3272975540100003
14 1 4.7967441822800004 9.880586974 0.782883661865
15 1 5.3657423901200003 1.3514798688500001 7.5373319998600002
16 1 6.3866385572300004 3.3596711317399999 9.8593189288499996
17 1 0.64725037395 7.8996217689100004 5.3551393676099997
18 1 6.47791375098 4.26297804923 6.4483996883300003
19 1 9.1866475009399995 1.93257210236 5.58459685469
20 1 6.5868259821699998 6.76418035865 1.15550445285
21 1 5.4141544928899999 1.1615594656999999 3.96944242613
ITEM: TIMESTEP energy, energy_weight, force_weight, nsims
11 -28356.0863270999982444 1 1 40
ITEM: NUMBER OF ATOMS
21
ITEM: BOX BOUNDS pp pp pp
0.0 10.0000212275277001
0.0 10.0000212275277001
0.0 10.0000212275277001
ITEM: ATOMS id type x y z
1 1 0.99737211717 3.7752740139599998 3.4061602304199998
2 1 3.8454461629100002 0.93070397565 8.5256900978899992
3 1 8.3621247506900005 0.74980159164 0.639043356528
4 1 2.6591866447800002 9.3525358530799992 1.1790165027599999
5 1 4.91309442926 6.6321830784599998 9.4484340566499992
6 1 8.7284825283699998 5.5361947519500002 1.75464272466
7 1 5.5725428291099998 1.9469821329500002 5.3049892611600003
8 1 8.4563609507299998 9.0081841221100003 6.0337608081600003
9 1 1.8754459811 0.511792086406 4.4150783721
10 1 5.1152018582899999 5.6464479859900002 4.7982861855500004
11 1 4.69874897426 1.80284482699 2.0975054524800001
12 1 9.0958163081300008 5.8798504814400002 5.2657361778300001
13 1 0.978748077636 3.4412923050000002 8.1044272036600003
14 1 1.95965815986 7.81382358678 6.8416375230700002
15 1 6.2316832282899997 7.97283592432 2.6677006628600002
16 1 1.80805983806 5.6225649352899998 0.543056152772
17 1 7.0406519455299996 3.3506541126 8.5485091463299998
18 1 1.94788313487 7.06575999883 3.55686255032
19 1 8.5319511111799998 6.4720847386100004 8.4647749685899996
20 1 5.1292798881700001 8.8176997177600002 6.2012161636199998
21 1 9.1250463701799998 2.1812456302399999 5.5082686926699998
ITEM: TIMESTEP energy, energy_weight, force_weight, nsims
12 -29708.9545867400011044 1 1 40
ITEM: NUMBER OF ATOMS
22
ITEM: BOX BOUNDS pp pp pp
0.0 10.0000212275277001
0.0 10.0000212275277001
0.0 10.0000212275277001
ITEM: ATOMS id type x y z
1 1 3.9101793003299998 0.905870922936 3.9185393180700002
2 1 6.7176612598999998 9.4933021518899992 0.957775033115
3 1 1.2005605484899999 5.4298825262700001 8.7688456140500008
4 1 5.3630903844900004 3.1395486644699999 0.00973702066924
5 1 9.8742449605400004 8.3906088111500008 0.736367563123
6 1 0.724515537964 3.2546579088200001 2.4642362309500002
7 1 1.2157575807500001 1.07626528464 7.3513236050100002
8 1 7.0306079242099999 5.8254093658799998 3.6177206795100002
9 1 0.115349244857 9.8682559478199998 4.3289621893000003
10 1 7.3104745183000004 2.0226422935600001 4.11119472703
11 1 5.0657017532099999 6.65767113256 7.81030257931
12 1 3.58535761081 5.99435572451 1.24718664746
13 1 8.1221792413399996 8.896671885390001 6.8713565861600002
14 1 8.4942400311299996 3.5624325621500002 6.9897108373999996
15 1 0.804259707241 6.2211692059799999 5.6414179753100004
16 1 4.4301584041100002 3.8002590669899998 5.2836022157600002
17 1 5.1469879257600004 0.558900186404 7.4322507768000001
18 1 2.4599122217699998 1.4247440243700001 0.363763772179
19 1 9.2417296178699999 1.68930958598 9.8574669249200008
20 1 8.0442230758599997 5.5677868190100002 9.6871695634199996
21 1 3.99466847968 7.69765634019 4.7737921335599998
22 1 2.55599242573 8.4080138480999995 8.9047439025300008
ITEM: TIMESTEP energy, energy_weight, force_weight, nsims
13 -28355.2245983999991957 1 1 40
ITEM: NUMBER OF ATOMS
21
ITEM: BOX BOUNDS pp pp pp
0.0 10.0000212275277001
0.0 10.0000212275277001
0.0 10.0000212275277001
ITEM: ATOMS id type x y z
1 1 9.7754507508199994 6.0640228723899998 7.5570580417300004
2 1 0.942245000149 5.1583129498 0.973738067001
3 1 1.87424197854 0.48162102236 5.4763276248599998
4 1 2.7031727381600002 2.2654998090900001 1.3111117831600001
5 1 5.9341835967799996 1.60940641636 7.86326069172
6 1 3.1405376665700002 5.6222059345300002 3.5871996147199998
7 1 6.6992382208 4.8600933167499996 5.7915452939899996
8 1 5.3724834044299996 9.2449556247100002 2.0856554273199999
9 1 7.0311459253499997 4.81732922598 9.6849165586399996
10 1 8.5699871919300002 9.4478410553900005 3.4233522669199999
11 1 3.3465411038599999 3.5646795669200002 7.8680477018800002
12 1 9.5186782057600006 3.3054860167100002 4.9560775205
13 1 5.4149154944999998 2.8600840712400002 3.1547366967100001
14 1 2.89060713603 7.61634116757 8.1985834035299998
15 1 0.431554916082 9.8908099956999998 0.645449370127
16 1 7.2444293781000005 8.798057676060001 6.3973505799600004
17 1 8.4374779106400002 6.2313712276300004 3.00590338078
18 1 9.9189830555 2.8661070840199998 8.7748456267900004
19 1 7.7826045205099996 7.9818949435500004 0.0398670846278
20 1 8.3063606323099997 2.4620282262700002 1.7108776317600002
21 1 4.2999501277099999 8.2971656127899998 5.0113426378200003
ITEM: TIMESTEP energy, energy_weight, force_weight, nsims
14 -29708.9746976000001276 1 1 40
ITEM: NUMBER OF ATOMS
22
ITEM: BOX BOUNDS pp pp pp
0.0 10.0000212275277001
0.0 10.0000212275277001
0.0 10.0000212275277001
ITEM: ATOMS id type x y z
1 1 8.3880958058200008 3.9203733219700002 5.8174703490299998
2 1 4.79360017561 4.7249810299500004 9.3405288275899992
3 1 0.691126467088 8.6650663937499992 9.2691986761800003
4 1 3.59891563959 5.9547516404399996 3.1700487292199999
5 1 1.61561042953 3.59204562501 7.0203449024199998
6 1 0.495633052104 7.1299321350499998 5.8390123947500002
7 1 4.73558205245 8.0613441122000005 5.71954914116
8 1 0.678269439795 0.863834833704 2.4441961884099999
9 1 8.8507407878900004 4.9140024311900002 0.184195391
10 1 4.95066350901 1.73003167242 7.0159718931399997
11 1 6.8506775422599998 0.633237344203 2.6785366858600002
12 1 1.91976507518 3.7487519576600002 1.1654554739700001
13 1 7.4898138989899996 1.5735863403300002 9.5274172243099998
14 1 8.8523677913499998 7.9617349007599998 2.6097745398900002
15 1 6.8340535069800002 8.1916233887499992 9.9513431241999992
16 1 6.8053524460499998 4.0402085763500004 2.8455570404000002
17 1 3.72985791755 9.506908180770001 2.0506863530900001
18 1 9.2966107343599998 0.25719954597 6.7863494057100002
19 1 3.2294468553 2.50648232063 4.2512470243299996
20 1 7.5109279438099996 6.7746303808299998 7.0771660230400002
21 1 5.1536129398200004 4.73925706025 5.84511640771
22 1 3.90953929897 9.1352433918199996 8.6873864411300002
ITEM: TIMESTEP energy, energy_weight, force_weight, nsims
15 -27002.0769191999988840 1 1 40
ITEM: NUMBER OF ATOMS
20
ITEM: BOX BOUNDS pp pp pp
0.0 10.0000212275277001
0.0 10.0000212275277001
0.0 10.0000212275277001
ITEM: ATOMS id type x y z
1 1 3.9928554758299998 5.4261225182899997 6.36367450848
2 1 4.1321937716099999 9.9533741285099992 7.7006103464600004
3 1 6.4330626557699997 7.9834739469100002 9.5930313635900006
4 1 9.5091621855599994 2.2647858075700001 0.965737050017
5 1 0.406898863744 2.1789886254400002 4.5034695597300002
6 1 2.60338652633 7.3027565019100003 0.465674988511
7 1 0.0633851345507 8.6392823390199994 8.8703048294200002
8 1 0.480529020042 4.4678234840600002 8.1958493977300009
9 1 5.0067006279699999 6.2488192646699998 2.75233284251
10 1 6.1892201381599996 2.24542276647 3.4983404261
11 1 8.1940313938700005 9.4849411341399996 4.0063945045700002
12 1 2.51352333558 9.1121333427700009 3.6468957414399998
13 1 7.1907902642400004 5.84107439913 5.2137960675799997
14 1 0.755953604699 5.48204163699 3.8474071670800002
15 1 6.6905982024600004 1.48886616049 9.1372823961500007
16 1 3.36121713502 3.3223490525099999 1.89220201667
17 1 8.4000038310900003 6.0079507533700003 1.4299070353300001
18 1 7.2326813531600003 5.0251296670899999 8.4350279054400002
19 1 3.57522858931 3.05419548329 8.57743020773
20 1 4.3106711504700002 0.110007233518 0.989294100022
ITEM: TIMESTEP energy, energy_weight, force_weight, nsims
16 -27000.6550707999986120 1 1 40
ITEM: NUMBER OF ATOMS
20
ITEM: BOX BOUNDS pp pp pp
0.0 10.0000212275277001
0.0 10.0000212275277001
0.0 10.0000212275277001
ITEM: ATOMS id type x y z
1 1 4.1842638821399998 8.2409054933700006 4.9806275726200004
2 1 5.49138265682 0.905685922543 3.08558354992
3 1 1.27434370511 1.4353090468000001 6.2860213436399999
4 1 9.6494654833899994 9.1239383678199992 9.0958123081199993
5 1 5.94024060964 8.5729211981500004 9.3723568951500003
6 1 2.2748778289899998 5.8401493971700004 2.1137564869699999
7 1 5.95879764903 4.9811145736500002 6.4188676256399999
8 1 0.859570824652 8.660661384400001 4.3403742135199997
9 1 9.4303080181700008 4.4533884534199998 0.200832426317
10 1 8.1117752192600001 3.0913545621699998 4.2970111214699998
11 1 2.72569678597 0.0203840432702 1.38717394462
12 1 1.53824426531 5.76127622974 6.0939679359600003
13 1 2.6677126628800002 7.3834856732800001 8.6984544646300002
14 1 3.5955576324599998 2.95683427661 8.7968106734100004
15 1 8.8355177555799998 1.1948965364599999 1.73889369123
16 1 7.1158271051100002 7.7163283798200002 3.3543561204499999
17 1 5.6198549295399998 3.8955432692600002 1.1646274722100001
18 1 7.4551308253700004 0.601330276473 6.7300922862899998
19 1 1.6940235959900002 2.63533359415 3.3108670281400001
20 1 8.61972729751 7.4511588169299996 6.3506824808999998
ITEM: TIMESTEP energy, energy_weight, force_weight, nsims
17 -32418.5914272000009072 1 1 40
ITEM: NUMBER OF ATOMS
24
ITEM: BOX BOUNDS pp pp pp
0.0 10.0000212275277001
0.0 10.0000212275277001
0.0 10.0000212275277001
ITEM: ATOMS id type x y z
1 1 4.9661685419300002 5.2806632095200001 5.6299879510500004
2 1 7.7056563571699996 9.8644569397600002 6.8546515507
3 1 9.3775399061600009 2.80828996129 2.2947688712200001
4 1 0.891801893071 3.09170456291 8.8690818268299996
5 1 5.56935882235 5.93926360756 1.45088207986
6 1 6.7799403921100004 5.3027792564700001 8.3546987349199995
7 1 5.1480789280800004 0.606981288468 4.3831873043999998
8 1 2.0980334535999998 8.2348644805400007 1.2108725703800001
9 1 6.1735901049799997 2.2197307119300001 9.6357674543100008
10 1 1.7894507985500002 8.6816414289400008 6.1377180288300002
11 1 7.1778592367899998 9.2167675648799996 1.4643051083500002
12 1 9.93849709693 5.33032131493 6.3626025062
13 1 2.7427988222700002 4.0953366933700002 1.53636926133
14 1 2.6554996369600002 6.4269266427499998 8.3562517382199993
15 1 9.2094105492599994 8.2647605440100005 4.1995039144900002
16 1 0.356532756829 1.68265457185 5.3550923675100002
17 1 9.6394984622299998 5.8730534670100002 0.195440414871
18 1 2.98022332626 0.625461327697 9.0135811335600007
19 1 7.22710734133 2.9179241940199998 5.7510122079499998
20 1 1.89085801382 6.2823043357500002 3.9414813667700002
21 1 9.7193346317000008 9.9675451585899992 9.4727701083099998
22 1 5.4877256490599998 8.3087236373300009 8.7530705805700002
23 1 2.2970378760300001 1.06664226421 2.81515997588
24 1 3.39859021435 2.5241953582300002 6.3193614144100003
ITEM: TIMESTEP energy, energy_weight, force_weight, nsims
18 -29709.9349287399995776 1 1 40
ITEM: NUMBER OF ATOMS
22
ITEM: BOX BOUNDS pp pp pp
0.0 10.0000212275277001
0.0 10.0000212275277001
0.0 10.0000212275277001
ITEM: ATOMS id type x y z
1 1 5.9312425905300002 4.63376383631 7.3101305175700002
2 1 9.6325974475800002 8.1861323770999999 5.1429549172
3 1 5.3444923450099999 8.81236170643 3.3517091148299998
4 1 6.3732295287599996 1.3296858225899999 6.4262816413800002
5 1 0.280813596097 5.2100550596400002 0.943187002149
6 1 0.728561546553 0.480743020496 9.6299194418899994
7 1 4.2893771052699998 7.8835417347699996 9.6637765137600002
8 1 3.8623511988 3.2126488196400001 5.1507109336600001
9 1 8.2313204730200003 4.6838469426299998 4.1355267786800001
10 1 5.3951004524400004 0.76776862978 0.760054613405
11 1 3.2083768105799999 6.1022139534599997 2.3220909292099998
12 1 1.1758804961 5.4929196600900002 6.6198640522999996
13 1 7.5066689347700004 8.5023260483000006 9.7141866207700006
14 1 3.4137662465699999 9.9084810332100002 6.5471618979799998
15 1 6.8224234822899996 5.3380283312900003 0.386167819737
16 1 3.3688531512300002 2.85803206688 8.7530365804900008
17 1 1.97043518274 2.3767600452600002 2.5464944055699998
18 1 8.0094090019599999 0.663306408033 2.7193947725899998
19 1 9.6665805197200002 2.1957196609600001 5.94517762012
20 1 6.3070653883099999 7.86835070253 6.5365988755500002
21 1 8.0645331189699991 2.4271121521499999 9.2829967054699996
22 1 1.45999709921 8.8465397789800004 2.5137503360600002
ITEM: TIMESTEP energy, energy_weight, force_weight, nsims
19 -29708.7549200199991904 1 1 40
ITEM: NUMBER OF ATOMS
22
ITEM: BOX BOUNDS pp pp pp
0.0 10.0000212275277001
0.0 10.0000212275277001
0.0 10.0000212275277001
ITEM: ATOMS id type x y z
1 1 5.9152775566500004 3.5589455547500002 5.2181170767499996
2 1 2.0543063607800001 3.9406593650300002 9.58110833828
3 1 4.0485565940699999 2.2134106985100002 2.69543172172
4 1 8.7138684973499992 0.419951891452 0.196374416853
5 1 6.6343720830999998 3.8202811095000002 0.36140876718
6 1 5.0825807890399997 8.73305253807 1.77098075935
7 1 6.89336363288 9.3045637512500008 6.6459011075800004
8 1 8.4214998767200005 1.52902724574 4.2940011150800004
9 1 2.92823521591 8.4407529175900003 8.6984554646299994
10 1 0.0206110437521 6.9421277363899998 4.8653723279600004
11 1 1.0845223021699999 7.1348321454499999 1.09174831751
12 1 1.69325659436 1.1570834562000001 5.8580084350800004
13 1 8.6968604612499992 7.0338969311900001 8.4718809836699994
14 1 3.18666676449 7.5935131191199998 4.4266823967300004
15 1 8.5211430882400006 3.7490469582800002 7.6074261486500002
16 1 5.0429137048400001 5.9243975759999996 7.9697529177800002
17 1 0.6271983313840002 3.70146485728 2.70305973792
18 1 4.94380949446 5.4290765245600001 2.7571598527600002
19 1 4.76061810559 1.48996716283 8.4501069374500002
20 1 2.2629488036700001 4.66601490478 5.80877833057
21 1 7.8482996599600004 6.67907017798 1.7212576538
22 1 1.01212014848 0.326022692064 2.73263380069
ITEM: TIMESTEP energy, energy_weight, force_weight, nsims
20 -28354.4397672900006468 1 1 40
ITEM: NUMBER OF ATOMS
21
ITEM: BOX BOUNDS pp pp pp
0.0 10.0000212275277001
0.0 10.0000212275277001
0.0 10.0000212275277001
ITEM: ATOMS id type x y z
1 1 5.60940390735 2.9929043531800002 4.4025893455900001
2 1 0.070051148701 6.7310922884100002 2.5555564247999998
3 1 7.06299999297 9.3516248511499996 9.6280034378299996
4 1 0.116275246823 6.5142068280199998 7.3685186415099997