ITEM: TIMESTEP energy, energy_weight, force_weight, nsims
0 -26064.6494973688677424 1 1 78
ITEM: NUMBER OF ATOMS
16
ITEM: BOX BOUNDS pp pp pp
0.0 3.2568742966954001
0.0 4.6059172266267892
0.0 18.4207116646457543
ITEM: ATOMS id type x y z
1 1 0.0 2.3029586133133946 1.1500031871526679
2 1 1.6284371483477 4.6059172266267892 1.1500031871526679
3 1 0.0 0.0 3.452960559466681
4 1 1.6284371483477 2.3029586133133946 3.452960559466681
5 1 0.0 2.3029586133133946 5.7559197738518596
6 1 1.6284371483477 4.6059172266267892 5.7559197738518596
7 1 0.0 0.0 8.0588771461658713
8 1 1.6284371483477 2.3029586133133946 8.0588771461658713
9 1 0.0 2.3029586133133946 10.3618345184798848
10 1 1.6284371483477 4.6059172266267892 10.3618345184798848
11 1 0.0 0.0 12.6647918907938966
12 1 1.6284371483477 2.3029586133133946 12.6647918907938966
13 1 0.0 2.3029586133133946 14.967751105179076
14 1 1.6284371483477 4.6059172266267892 14.967751105179076
15 1 0.0 0.0 17.2707084774930842
16 1 1.6284371483477 2.3029586133133946 17.2707084774930842
ITEM: TIMESTEP energy, energy_weight, force_weight, nsims
1 -26064.6361236003649536 1 1 78
ITEM: NUMBER OF ATOMS
16
ITEM: BOX BOUNDS pp pp pp
0.0 3.2568742966954001
0.0 4.6059172266267892
0.0 18.5207107330514874
ITEM: ATOMS id type x y z
1 1 0.0 2.3029586133133946 1.2000031501712387
2 1 1.6284371483477 4.6059172266267892 1.2000031501712387
3 1 0.0 0.0 3.5029609262725252
4 1 1.6284371483477 2.3029586133133946 3.5029609262725252
5 1 0.0 2.3029586133133946 5.8059187023738136
6 1 1.6284371483477 4.6059172266267892 5.8059187023738136
7 1 0.0 0.0 8.1088764784751017
8 1 1.6284371483477 2.3029586133133946 8.1088764784751017
9 1 0.0 2.3029586133133946 10.4118342545763874
10 1 1.6284371483477 4.6059172266267892 10.4118342545763874
11 1 0.0 0.0 12.7147920306776766
12 1 1.6284371483477 2.3029586133133946 12.7147920306776766
13 1 0.0 2.3029586133133946 15.0177498067789639
14 1 1.6284371483477 4.6059172266267892 15.0177498067789639
15 1 0.0 0.0 17.3207075828802495
16 1 1.6284371483477 2.3029586133133946 17.3207075828802495
ITEM: TIMESTEP energy, energy_weight, force_weight, nsims
2 -26064.5937541041748768 1 1 78
ITEM: NUMBER OF ATOMS
16
ITEM: BOX BOUNDS pp pp pp
0.0 3.2568742966954001
0.0 4.6059172266267892
0.0 18.6207130583315212
ITEM: ATOMS id type x y z
1 1 0.0 2.3029586133133946 1.2500028813918776
2 1 1.6284371483477 4.6059172266267892 1.2500028813918776
3 1 0.0 0.0 3.552960534449757
4 1 1.6284371483477 2.3029586133133946 3.552960534449757
5 1 0.0 2.3029586133133946 5.8559200495789422
6 1 1.6284371483477 4.6059172266267892 5.8559200495789422
7 1 0.0 0.0 8.158877702636822
8 1 1.6284371483477 2.3029586133133946 8.158877702636822
9 1 0.0 2.3029586133133946 10.4618353556946992
10 1 1.6284371483477 4.6059172266267892 10.4618353556946992
11 1 0.0 0.0 12.7647930087525802
12 1 1.6284371483477 2.3029586133133946 12.7647930087525802
13 1 0.0 2.3029586133133946 15.0677525238817633
14 1 1.6284371483477 4.6059172266267892 15.0677525238817633
15 1 0.0 0.0 17.3707101769396459
16 1 1.6284371483477 2.3029586133133946 17.3707101769396459
ITEM: TIMESTEP energy, energy_weight, force_weight, nsims
3 -26064.5324967586420832 1 1 78
ITEM: NUMBER OF ATOMS
16
ITEM: BOX BOUNDS pp pp pp
0.0 3.2568742966954001
0.0 4.6059172266267892
0.0 18.7207121267372578
ITEM: ATOMS id type x y z
1 1 0.0 2.3029586133133946 1.3000036915048887
2 1 1.6284371483477 4.6059172266267892 1.3000036915048887
3 1 0.0 0.0 3.6029620469148754
4 1 1.6284371483477 2.3029586133133946 3.6029620469148754
5 1 0.0 2.3029586133133946 5.9059185302536488
6 1 1.6284371483477 4.6059172266267892 5.9059185302536488
7 1 0.0 0.0 8.2088768856636349
8 1 1.6284371483477 2.3029586133133946 8.2088768856636349
9 1 0.0 2.3029586133133946 10.5118352410736248
10 1 1.6284371483477 4.6059172266267892 10.5118352410736248
11 1 0.0 0.0 12.8147935964836074
12 1 1.6284371483477 2.3029586133133946 12.8147935964836074
13 1 0.0 2.3029586133133946 15.1177500798223843
14 1 1.6284371483477 4.6059172266267892 15.1177500798223843
15 1 0.0 0.0 17.4207084352323669
16 1 1.6284371483477 2.3029586133133946 17.4207084352323669
ITEM: TIMESTEP energy, energy_weight, force_weight, nsims
4 -26064.4533557937029408 1 1 78
ITEM: NUMBER OF ATOMS
16
ITEM: BOX BOUNDS pp pp pp
0.0 3.2568742966954001
0.0 4.6059172266267892
0.0 18.8207111951429944
ITEM: ATOMS id type x y z
1 1 0.0 2.3029586133133946 1.3500039678142479
2 1 1.6284371483477 4.6059172266267892 1.3500039678142479
3 1 0.0 0.0 3.6529607697144112
4 1 1.6284371483477 2.3029586133133946 3.6529607697144112
5 1 0.0 2.3029586133133946 5.9559194536856932
6 1 1.6284371483477 4.6059172266267892 5.9559194536856932
7 1 0.0 0.0 8.2588762555858555
8 1 1.6284371483477 2.3029586133133946 8.2588762555858555
9 1 0.0 2.3029586133133946 10.5618349395571354
10 1 1.6284371483477 4.6059172266267892 10.5618349395571354
11 1 0.0 0.0 12.8647917414572994
12 1 1.6284371483477 2.3029586133133946 12.8647917414572994
13 1 0.0 2.3029586133133946 15.1677504254285847
14 1 1.6284371483477 4.6059172266267892 15.1677504254285847
15 1 0.0 0.0 17.4707072273287452
16 1 1.6284371483477 2.3029586133133946 17.4707072273287452
ITEM: TIMESTEP energy, energy_weight, force_weight, nsims
5 -26064.3526764709095008 1 1 78
ITEM: NUMBER OF ATOMS
16
ITEM: BOX BOUNDS pp pp pp
0.0 3.2568742966954001
0.0 4.6059172266267892
0.0 18.9207135204230248
ITEM: ATOMS id type x y z
1 1 0.0 2.3029586133133946 1.400004139659365
2 1 1.6284371483477 4.6059172266267892 1.400004139659365
3 1 0.0 0.0 3.7029614906538786
4 1 1.6284371483477 2.3029586133133946 3.7029614906538786
5 1 0.0 2.3029586133133946 6.0059188416483904
6 1 1.6284371483477 4.6059172266267892 6.0059188416483904
7 1 0.0 0.0 8.308878084714257
8 1 1.6284371483477 2.3029586133133946 8.308878084714257
9 1 0.0 2.3029586133133946 10.6118354357087696
10 1 1.6284371483477 4.6059172266267892 10.6118354357087696
11 1 0.0 0.0 12.9147946787746352
12 1 1.6284371483477 2.3029586133133946 12.9147946787746352
13 1 0.0 2.3029586133133946 15.217752029769148
14 1 1.6284371483477 4.6059172266267892 15.217752029769148
15 1 0.0 0.0 17.5207093807636626
16 1 1.6284371483477 2.3029586133133946 17.5207093807636626
ITEM: TIMESTEP energy, energy_weight, force_weight, nsims
6 -26064.2313370322699488 1 1 78
ITEM: NUMBER OF ATOMS
16
ITEM: BOX BOUNDS pp pp pp
0.0 3.2568742966954001
0.0 4.6059172266267892
0.0 19.0207125888287614
ITEM: ATOMS id type x y z
1 1 0.0 2.3029586133133946 1.4500040807129244
2 1 1.6284371483477 4.6059172266267892 1.4500040807129244
3 1 0.0 0.0 3.752961584331731
4 1 1.6284371483477 2.3029586133133946 3.752961584331731
5 1 0.0 2.3029586133133946 6.0559190879505396
6 1 1.6284371483477 4.6059172266267892 6.0559190879505396
7 1 0.0 0.0 8.3588765915693468
8 1 1.6284371483477 2.3029586133133946 8.3588765915693468
9 1 0.0 2.3029586133133946 10.6618359972594164
10 1 1.6284371483477 4.6059172266267892 10.6618359972594164
11 1 0.0 0.0 12.9647935008782244
12 1 1.6284371483477 2.3029586133133946 12.9647935008782244
13 1 0.0 2.3029586133133946 15.2677510044970326
14 1 1.6284371483477 4.6059172266267892 15.2677510044970326
15 1 0.0 0.0 17.570708508115839
16 1 1.6284371483477 2.3029586133133946 17.570708508115839
ITEM: TIMESTEP energy, energy_weight, force_weight, nsims
7 -26064.0943205317380496 1 1 78
ITEM: NUMBER OF ATOMS
16
ITEM: BOX BOUNDS pp pp pp
0.0 3.2568742966954001
0.0 4.6059172266267892
0.0 19.120711657234498
ITEM: ATOMS id type x y z
1 1 0.0 2.3029586133133946 1.5000045329407206
2 1 1.6284371483477 4.6059172266267892 1.5000045329407206
3 1 0.0 0.0 3.8029623191441808
4 1 1.6284371483477 2.3029586133133946 3.8029623191441808
5 1 0.0 2.3029586133133946 6.1059201053476411
6 1 1.6284371483477 4.6059172266267892 6.1059201053476411
7 1 0.0 0.0 8.4088778915511018
8 1 1.6284371483477 2.3029586133133946 8.4088778915511018
9 1 0.0 2.3029586133133946 10.711833765683398
10 1 1.6284371483477 4.6059172266267892 10.711833765683398
11 1 0.0 0.0 13.0147915518868569
12 1 1.6284371483477 2.3029586133133946 13.0147915518868569
13 1 0.0 2.3029586133133946 15.3177493380903176
14 1 1.6284371483477 4.6059172266267892 15.3177493380903176
15 1 0.0 0.0 17.6207071242937802
16 1 1.6284371483477 2.3029586133133946 17.6207071242937802
ITEM: TIMESTEP energy, energy_weight, force_weight, nsims
8 -26063.946690432410832 1 1 78
ITEM: NUMBER OF ATOMS
16
ITEM: BOX BOUNDS pp pp pp
0.0 3.2568742966954001
0.0 4.6059172266267892
0.0 19.2207139825145284
ITEM: ATOMS id type x y z
1 1 0.0 2.3029586133133946 1.5500045052635296
2 1 1.6284371483477 4.6059172266267892 1.5500045052635296
3 1 0.0 0.0 3.8529612600780832
4 1 1.6284371483477 2.3029586133133946 3.8529612600780832
5 1 0.0 2.3029586133133946 6.1559199369640352
6 1 1.6284371483477 4.6059172266267892 6.1559199369640352
7 1 0.0 0.0 8.4588786138499864
8 1 1.6284371483477 2.3029586133133946 8.4588786138499864
9 1 0.0 2.3029586133133946 10.7618353686645404
10 1 1.6284371483477 4.6059172266267892 10.7618353686645404
11 1 0.0 0.0 13.0647940455504905
12 1 1.6284371483477 2.3029586133133946 13.0647940455504905
13 1 0.0 2.3029586133133946 15.3677527224364443
14 1 1.6284371483477 4.6059172266267892 15.3677527224364443
15 1 0.0 0.0 17.6707094772509984
16 1 1.6284371483477 2.3029586133133946 17.6707094772509984
ITEM: TIMESTEP energy, energy_weight, force_weight, nsims
9 -26063.7925576687630368 1 1 78
ITEM: NUMBER OF ATOMS
16
ITEM: BOX BOUNDS pp pp pp
0.0 3.2568742966954001
0.0 4.6059172266267892
0.0 19.3207130509202649
ITEM: ATOMS id type x y z
1 1 0.0 2.3029586133133946 1.600004277814555
2 1 1.6284371483477 4.6059172266267892 1.600004277814555
3 1 0.0 0.0 3.9029617868459616
4 1 1.6284371483477 2.3029586133133946 3.9029617868459616
5 1 0.0 2.3029586133133946 6.2059192958773677
6 1 1.6284371483477 4.6059172266267892 6.2059192958773677
7 1 0.0 0.0 8.5088768049087752
8 1 1.6284371483477 2.3029586133133946 8.5088768049087752
9 1 0.0 2.3029586133133946 10.8118362460114882
10 1 1.6284371483477 4.6059172266267892 10.8118362460114882
11 1 0.0 0.0 13.1147937550428964
12 1 1.6284371483477 2.3029586133133946 13.1147937550428964
13 1 0.0 2.3029586133133946 15.4177512640743047
14 1 1.6284371483477 4.6059172266267892 15.4177512640743047
15 1 0.0 0.0 17.7207087731057094
16 1 1.6284371483477 2.3029586133133946 17.7207087731057094
ITEM: TIMESTEP energy, energy_weight, force_weight, nsims
10 -26063.6352406486003008 1 1 78
ITEM: NUMBER OF ATOMS
16
ITEM: BOX BOUNDS pp pp pp
0.0 3.2568742966954001
0.0 4.6059172266267892
0.0 19.4207153762002953
ITEM: ATOMS id type x y z
1 1 0.0 2.3029586133133946 1.650005341148891
2 1 1.6284371483477 4.6059172266267892 1.650005341148891
3 1 0.0 0.0 3.9529623222471622
4 1 1.6284371483477 2.3029586133133946 3.9529623222471622
5 1 0.0 2.3029586133133946 6.2559212454169719
6 1 1.6284371483477 4.6059172266267892 6.2559212454169719
7 1 0.0 0.0 8.558878226515244
8 1 1.6284371483477 2.3029586133133946 8.558878226515244
9 1 0.0 2.3029586133133946 10.8618371496850514
10 1 1.6284371483477 4.6059172266267892 10.8618371496850514
11 1 0.0 0.0 13.1647941307833243
12 1 1.6284371483477 2.3029586133133946 13.1647941307833243
13 1 0.0 2.3029586133133946 15.4677530539531318
14 1 1.6284371483477 4.6059172266267892 15.4677530539531318
15 1 0.0 0.0 17.7707100350514082
16 1 1.6284371483477 2.3029586133133946 17.7707100350514082
ITEM: TIMESTEP energy, energy_weight, force_weight, nsims
11 -26063.477459949321200 1 1 78
ITEM: NUMBER OF ATOMS
16
ITEM: BOX BOUNDS pp pp pp
0.0 3.2568742966954001
0.0 4.6059172266267892
0.0 19.520714444606032
ITEM: ATOMS id type x y z
1 1 0.0 2.3029586133133946 1.7000043629802948
2 1 1.6284371483477 4.6059172266267892 1.7000043629802948
3 1 0.0 0.0 4.0029626016541355
4 1 1.6284371483477 2.3029586133133946 4.0029626016541355
5 1 0.0 2.3029586133133946 6.3059208403279765
6 1 1.6284371483477 4.6059172266267892 6.3059208403279765
7 1 0.0 0.0 8.6088790790018184
8 1 1.6284371483477 2.3029586133133946 8.6088790790018184
9 1 0.0 2.3029586133133946 10.9118353656042136
10 1 1.6284371483477 4.6059172266267892 10.9118353656042136
11 1 0.0 0.0 13.2147936042780536
12 1 1.6284371483477 2.3029586133133946 13.2147936042780536
13 1 0.0 2.3029586133133946 15.5177518429518956
14 1 1.6284371483477 4.6059172266267892 15.5177518429518956
15 1 0.0 0.0 17.8207100816257374
16 1 1.6284371483477 2.3029586133133946 17.8207100816257374
ITEM: TIMESTEP energy, energy_weight, force_weight, nsims
12 -26063.3214769590340448 1 1 78
ITEM: NUMBER OF ATOMS
16
ITEM: BOX BOUNDS pp pp pp
0.0 3.2568742966954001
0.0 4.6059172266267892
0.0 19.6207135130117686
ITEM: ATOMS id type x y z
1 1 0.0 2.3029586133133946 1.7500047934384918
2 1 1.6284371483477 4.6059172266267892 1.7500047934384918
3 1 0.0 0.0 4.0529624971720324
4 1 1.6284371483477 2.3029586133133946 4.0529624971720324
5 1 0.0 2.3029586133133946 6.3559202009055733
6 1 1.6284371483477 4.6059172266267892 6.3559202009055733
7 1 0.0 0.0 8.6588779046391142
8 1 1.6284371483477 2.3029586133133946 8.6588779046391142
9 1 0.0 2.3029586133133946 10.9618356083726542
10 1 1.6284371483477 4.6059172266267892 10.9618356083726542
11 1 0.0 0.0 13.2647933121061943
12 1 1.6284371483477 2.3029586133133946 13.2647933121061943
13 1 0.0 2.3029586133133946 15.567751015839738
14 1 1.6284371483477 4.6059172266267892 15.567751015839738
15 1 0.0 0.0 17.8707087195732762
16 1 1.6284371483477 2.3029586133133946 17.8707087195732762
ITEM: TIMESTEP energy, energy_weight, force_weight, nsims
13 -26063.1691798640240448 1 1 78
ITEM: NUMBER OF ATOMS
16
ITEM: BOX BOUNDS pp pp pp
0.0 3.2568742966954001
0.0 4.6059172266267892
0.0 19.7207158382918024
ITEM: ATOMS id type x y z
1 1 0.0 2.3029586133133946 1.8000043939969166
2 1 1.6284371483477 4.6059172266267892 1.8000043939969166
3 1 0.0 0.0 4.10296198059046
4 1 1.6284371483477 2.3029586133133946 4.10296198059046
5 1 0.0 2.3029586133133946 6.4059215392555862
6 1 1.6284371483477 4.6059172266267892 6.4059215392555862
7 1 0.0 0.0 8.7088791258491298
8 1 1.6284371483477 2.3029586133133946 8.7088791258491298
9 1 0.0 2.3029586133133946 11.0118367124426708
10 1 1.6284371483477 4.6059172266267892 11.0118367124426708
11 1 0.0 0.0 13.3147942990362154
12 1 1.6284371483477 2.3029586133133946 13.3147942990362154
13 1 0.0 2.3029586133133946 15.6177538577013398
14 1 1.6284371483477 4.6059172266267892 15.6177538577013398
15 1 0.0 0.0 17.9207114442948842
16 1 1.6284371483477 2.3029586133133946 17.9207114442948842
ITEM: TIMESTEP energy, energy_weight, force_weight, nsims
14 -26063.0219826951470176 1 1 78
ITEM: NUMBER OF ATOMS
16
ITEM: BOX BOUNDS pp pp pp
0.0 3.2568742966954001
0.0 4.6059172266267892
0.0 19.8207149066975354
ITEM: ATOMS id type x y z
1 1 0.0 2.3029586133133946 1.8500040851749374
2 1 1.6284371483477 4.6059172266267892 1.8500040851749374
3 1 0.0 0.0 4.1529630398266706
4 1 1.6284371483477 2.3029586133133946 4.1529630398266706
5 1 0.0 2.3029586133133946 6.4559200124069136
6 1 1.6284371483477 4.6059172266267892 6.4559200124069136
7 1 0.0 0.0 8.7588789670586476
8 1 1.6284371483477 2.3029586133133946 8.7588789670586476
9 1 0.0 2.3029586133133946 11.0618359396388915
10 1 1.6284371483477 4.6059172266267892 11.0618359396388915
11 1 0.0 0.0 13.3647948942906219
12 1 1.6284371483477 2.3029586133133946 13.3647948942906219
13 1 0.0 2.3029586133133946 15.6677518668708676
14 1 1.6284371483477 4.6059172266267892 15.6677518668708676
15 1 0.0 0.0 17.9707108215226014
16 1 1.6284371483477 2.3029586133133946 17.9707108215226014
ITEM: TIMESTEP energy, energy_weight, force_weight, nsims
15 -26062.8809435605326144 1 1 78
ITEM: NUMBER OF ATOMS
16
ITEM: BOX BOUNDS pp pp pp
0.0 3.2568742966954001
0.0 4.6059172266267892
0.0 19.920713975103272
ITEM: ATOMS id type x y z
1 1 0.0 2.3029586133133946 1.90000582580299
2 1 1.6284371483477 4.6059172266267892 1.90000582580299
3 1 0.0 0.0 4.2029618776801767
4 1 1.6284371483477 2.3029586133133946 4.2029618776801767
5 1 0.0 2.3029586133133946 6.5059199216287604
6 1 1.6284371483477 4.6059172266267892 6.5059199216287604
7 1 0.0 0.0 8.808877965577345
8 1 1.6284371483477 2.3029586133133946 8.808877965577345
9 1 0.0 2.3029586133133946 11.1118360095259288
10 1 1.6284371483477 4.6059172266267892 11.1118360095259288
11 1 0.0 0.0 13.4147940534745107
12 1 1.6284371483477 2.3029586133133946 13.4147940534745107
13 1 0.0 2.3029586133133946 15.7177520974230944
14 1 1.6284371483477 4.6059172266267892 15.7177520974230944
15 1 0.0 0.0 18.0207081493002832
16 1 1.6284371483477 2.3029586133133946 18.0207081493002832
ITEM: TIMESTEP energy, energy_weight, force_weight, nsims
16 -26062.7468455989874208 1 1 78
ITEM: NUMBER OF ATOMS
16
ITEM: BOX BOUNDS pp pp pp
0.0 3.2568742966954001
0.0 4.6059172266267892
0.0 20.0207163003833024
ITEM: ATOMS id type x y z
1 1 0.0 2.3029586133133946 1.9500057552275536
2 1 1.6284371483477 4.6059172266267892 1.9500057552275536
3 1 0.0 0.0 4.2529627243294543
4 1 1.6284371483477 2.3029586133133946 4.2529627243294543
5 1 0.0 2.3029586133133946 6.5559216955029856
6 1 1.6284371483477 4.6059172266267892 6.5559216955029856
7 1 0.0 0.0 8.8588786646048856
8 1 1.6284371483477 2.3029586133133946 8.8588786646048856
9 1 0.0 2.3029586133133946 11.1618376357784168
10 1 1.6284371483477 4.6059172266267892 11.1618376357784168
11 1 0.0 0.0 13.464794604880316
12 1 1.6284371483477 2.3029586133133946 13.464794604880316
13 1 0.0 2.3029586133133946 15.7677535760538472
14 1 1.6284371483477 4.6059172266267892 15.7677535760538472
15 1 0.0 0.0 18.0707105451557482
16 1 1.6284371483477 2.3029586133133946 18.0707105451557482
ITEM: TIMESTEP energy, energy_weight, force_weight, nsims
17 -26062.6201635101679136 1 1 78
ITEM: NUMBER OF ATOMS
16
ITEM: BOX BOUNDS pp pp pp
0.0 3.2568742966954001
0.0 4.6059172266267892
0.0 20.120715368789039
ITEM: ATOMS id type x y z
1 1 0.0 2.3029586133133946 2.000005143872241
2 1 1.6284371483477 4.6059172266267892 2.000005143872241
3 1 0.0 0.0 4.3029638749092652
4 1 1.6284371483477 2.3029586133133946 4.3029638749092652
5 1 0.0 2.3029586133133946 6.6059205938747524
6 1 1.6284371483477 4.6059172266267892 6.6059205938747524
7 1 0.0 0.0 8.9088793249117764
8 1 1.6284371483477 2.3029586133133946 8.9088793249117764
9 1 0.0 2.3029586133133946 11.2118360438772644
10 1 1.6284371483477 4.6059172266267892 11.2118360438772644
11 1 0.0 0.0 13.5147947749142858
12 1 1.6284371483477 2.3029586133133946 13.5147947749142858
13 1 0.0 2.3029586133133946 15.817751493879774
14 1 1.6284371483477 4.6059172266267892 15.817751493879774
15 1 0.0 0.0 18.1207102249167988
16 1 1.6284371483477 2.3029586133133946 18.1207102249167988
ITEM: TIMESTEP energy, energy_weight, force_weight, nsims
18 -26062.5011341677272864 1 1 78
ITEM: NUMBER OF ATOMS
16
ITEM: BOX BOUNDS pp pp pp
0.0 3.2568742966954001
0.0 4.6059172266267892
0.0 20.2207176940690729
ITEM: ATOMS id type x y z
1 1 0.0 2.3029586133133946 2.0500046688294944
2 1 1.6284371483477 4.6059172266267892 2.0500046688294944
3 1 0.0 0.0 4.3529644497964846
4 1 1.6284371483477 2.3029586133133946 4.3529644497964846
5 1 0.0 2.3029586133133946 6.6559222086917052
6 1 1.6284371483477 4.6059172266267892 6.6559222086917052
7 1 0.0 0.0 8.9588799675869258
8 1 1.6284371483477 2.3029586133133946 8.9588799675869258
9 1 0.0 2.3029586133133946 11.2618377264821437
10 1 1.6284371483477 4.6059172266267892 11.2618377264821437
11 1 0.0 0.0 13.5647954853773688
12 1 1.6284371483477 2.3029586133133946 13.5647954853773688
13 1 0.0 2.3029586133133946 15.8677532442725884
14 1 1.6284371483477 4.6059172266267892 15.8677532442725884
15 1 0.0 0.0 18.1707130252395786
16 1 1.6284371483477 2.3029586133133946 18.1707130252395786
ITEM: TIMESTEP energy, energy_weight, force_weight, nsims
19 -26062.3898347154499808 1 1 78
ITEM: NUMBER OF ATOMS
16
ITEM: BOX BOUNDS pp pp pp
0.0 3.2568742966954001
0.0 4.6059172266267892
0.0 20.320716762474806
ITEM: ATOMS id type x y z
1 1 0.0 2.3029586133133946 2.1000058644561102
2 1 1.6284371483477 4.6059172266267892 2.1000058644561102
3 1 0.0 0.0 4.402962855505761
4 1 1.6284371483477 2.3029586133133946 4.402962855505761
5 1 0.0 2.3029586133133946 6.7059218786270894
6 1 1.6284371483477 4.6059172266267892 6.7059218786270894
7 1 0.0 0.0 9.0088788696767406
8 1 1.6284371483477 2.3029586133133946 9.0088788696767406
9 1 0.0 2.3029586133133946 11.3118378927980672
10 1 1.6284371483477 4.6059172266267892 11.3118378927980672
11 1 0.0 0.0 13.6147948838477202
12 1 1.6284371483477 2.3029586133133946 13.6147948838477202
13 1 0.0 2.3029586133133946 15.9177539069690486
14 1 1.6284371483477 4.6059172266267892 15.9177539069690486
15 1 0.0 0.0 18.2207108980186945
16 1 1.6284371483477 2.3029586133133946 18.2207108980186945
ITEM: TIMESTEP energy, energy_weight, force_weight, nsims
20 -26062.2862269215802368 1 1 78
ITEM: NUMBER OF ATOMS
16
ITEM: BOX BOUNDS pp pp pp
0.0 3.2568742966954001
0.0 4.6059172266267892
0.0 20.4207158308805426
ITEM: ATOMS id type x y z
1 1 0.0 2.3029586133133946 2.1500052766121733
2 1 1.6284371483477 4.6059172266267892 2.1500052766121733
3 1 0.0 0.0 4.4529637568692256
4 1 1.6284371483477 2.3029586133133946 4.4529637568692256
5 1 0.0 2.3029586133133946 6.755920195054693
6 1 1.6284371483477 4.6059172266267892 6.755920195054693
7 1 0.0 0.0 9.0588786753117461
8 1 1.6284371483477 2.3029586133133946 9.0588786753117461
9 1 0.0 2.3029586133133946 11.3618371555687965
10 1 1.6284371483477 4.6059172266267892 11.3618371555687965
11 1 0.0 0.0 13.6647956358258504
12 1 1.6284371483477 2.3029586133133946 13.6647956358258504
13 1 0.0 2.3029586133133946 15.9677520740113152
14 1 1.6284371483477 4.6059172266267892 15.9677520740113152
15 1 0.0 0.0 18.2707105542683692
16 1 1.6284371483477 2.3029586133133946 18.2707105542683692
ITEM: TIMESTEP energy, energy_weight, force_weight, nsims
21 -26062.1901009876419264 1 1 78
ITEM: NUMBER OF ATOMS
16
ITEM: BOX BOUNDS pp pp pp
0.0 3.2568742966954001
0.0 4.6059172266267892
0.0 20.5207181561605766
ITEM: ATOMS id type x y z
1 1 0.0 2.3029586133133946 2.2000056728038189
2 1 1.6284371483477 4.6059172266267892 2.2000056728038189
3 1 0.0 0.0 4.5029637885970956
4 1 1.6284371483477 2.3029586133133946 4.5029637885970956
5 1 0.0 2.3029586133133946 6.805921904390372
6 1 1.6284371483477 4.6059172266267892 6.805921904390372
7 1 0.0 0.0 9.1088800201836495
8 1 1.6284371483477 2.3029586133133946 9.1088800201836495
9 1 0.0 2.3029586133133946 11.4118381359769235
10 1 1.6284371483477 4.6059172266267892 11.4118381359769235
11 1 0.0 0.0 13.7147962517702044
12 1 1.6284371483477 2.3029586133133946 13.7147962517702044
13 1 0.0 2.3029586133133946 16.0177543675634801
14 1 1.6284371483477 4.6059172266267892 16.0177543675634801
15 1 0.0 0.0 18.3207124833567612
16 1 1.6284371483477 2.3029586133133946 18.3207124833567612
ITEM: TIMESTEP energy, energy_weight, force_weight, nsims
22 -26062.101201264256816 1 1 78
ITEM: NUMBER OF ATOMS
16
ITEM: BOX BOUNDS pp pp pp
0.0 3.2568742966954001
0.0 4.6059172266267892
0.0 20.6207172245663132
ITEM: ATOMS id type x y z
1 1 0.0 2.3029586133133946 2.2500068771696063
2 1 1.6284371483477 4.6059172266267892 2.2500068771696063
3 1 0.0 0.0 4.5529636320284538
4 1 1.6284371483477 2.3029586133133946 4.5529636320284538
5 1 0.0 2.3029586133133946 6.8559224489590226
6 1 1.6284371483477 4.6059172266267892 6.8559224489590226
7 1 0.0 0.0 9.1588792038178699
8 1 1.6284371483477 2.3029586133133946 9.1588792038178699
9 1 0.0 2.3029586133133946 11.4618380207484396
10 1 1.6284371483477 4.6059172266267892 11.4618380207484396
11 1 0.0 0.0 13.7647947756072888
12 1 1.6284371483477 2.3029586133133946 13.7647947756072888
13 1 0.0 2.3029586133133946 16.0677535925378585
14 1 1.6284371483477 4.6059172266267892 16.0677535925378585
15 1 0.0 0.0 18.3707103473967024
16 1 1.6284371483477 2.3029586133133946 18.3707103473967024
ITEM: TIMESTEP energy, energy_weight, force_weight, nsims
23 -26062.019217135399232 1 1 78
ITEM: NUMBER OF ATOMS
16
ITEM: BOX BOUNDS pp pp pp
0.0 3.2568742966954001
0.0 4.6059172266267892
0.0 20.7207162929720462
ITEM: ATOMS id type x y z
1 1 0.0 2.3029586133133946 2.3000057247347847
2 1 1.6284371483477 4.6059172266267892 2.3000057247347847
3 1 0.0 0.0 4.6029641515413192
4 1 1.6284371483477 2.3029586133133946 4.6029641515413192
5 1 0.0 2.3029586133133946 6.9059205062762228
6 1 1.6284371483477 4.6059172266267892 6.9059205062762228
7 1 0.0 0.0 9.2088789330827563
8 1 1.6284371483477 2.3029586133133946 9.2088789330827563
9 1 0.0 2.3029586133133946 11.5118373598892916
10 1 1.6284371483477 4.6059172266267892 11.5118373598892916
11 1 0.0 0.0 13.8147957866958234
12 1 1.6284371483477 2.3029586133133946 13.8147957866958234
13 1 0.0 2.3029586133133946 16.1177521414307279
14 1 1.6284371483477 4.6059172266267892 16.1177521414307279
15 1 0.0 0.0 18.4207105682372614
16 1 1.6284371483477 2.3029586133133946 18.4207105682372614
ITEM: TIMESTEP energy, energy_weight, force_weight, nsims
24 -26061.9437998893263296 1 1 78
ITEM: NUMBER OF ATOMS
16
ITEM: BOX BOUNDS pp pp pp
0.0 3.2568742966954001
0.0 4.6059172266267892
0.0 20.8207186182520766
ITEM: ATOMS id type x y z
1 1 0.0 2.3029586133133946 2.3500053614360463
2 1 1.6284371483477 4.6059172266267892 2.3500053614360463
3 1 0.0 0.0 4.6529642270822906
4 1 1.6284371483477 2.3029586133133946 4.6529642270822906
5 1 0.0 2.3029586133133946 6.9559230927285336
6 1 1.6284371483477 4.6059172266267892 6.9559230927285336
7 1 0.0 0.0 9.2588798763029168
8 1 1.6284371483477 2.3029586133133946 9.2588798763029168
9 1 0.0 2.3029586133133946 11.5618387419491598
10 1 1.6284371483477 4.6059172266267892 11.5618387419491598
11 1 0.0 0.0 13.864795525523542
12 1 1.6284371483477 2.3029586133133946 13.864795525523542
13 1 0.0 2.3029586133133946 16.1677543911697832
14 1 1.6284371483477 4.6059172266267892 16.1677543911697832
15 1 0.0 0.0 18.4707132568160298
16 1 1.6284371483477 2.3029586133133946 18.4707132568160298
ITEM: TIMESTEP energy, energy_weight, force_weight, nsims
25 -26061.87454611976864 1 1 78
ITEM: NUMBER OF ATOMS
16
ITEM: BOX BOUNDS pp pp pp
0.0 3.2568742966954001
0.0 4.6059172266267892
0.0 20.920717686657813
ITEM: ATOMS id type x y z
1 1 0.0 2.3029586133133946 2.4000059043674664
2 1 1.6284371483477 4.6059172266267892 2.4000059043674664
3 1 0.0 0.0 4.7029647835300646
4 1 1.6284371483477 2.3029586133133946 4.7029647835300646
5 1 0.0 2.3029586133133946 7.0059215706208935
6 1 1.6284371483477 4.6059172266267892 7.0059215706208935
7 1 0.0 0.0 9.3088804497834907
8 1 1.6284371483477 2.3029586133133946 9.3088804497834907
9 1 0.0 2.3029586133133946 11.6118372368743224
10 1 1.6284371483477 4.6059172266267892 11.6118372368743224
11 1 0.0 0.0 13.9147961160369178
12 1 1.6284371483477 2.3029586133133946 13.9147961160369178
13 1 0.0 2.3029586133133946 16.2177529031277494
14 1 1.6284371483477 4.6059172266267892 16.2177529031277494
15 1 0.0 0.0 18.5207117822903484
16 1 1.6284371483477 2.3029586133133946 18.5207117822903484
ITEM: TIMESTEP energy, energy_weight, force_weight, nsims
26 -26061.811061672247888 1 1 78
ITEM: NUMBER OF ATOMS
16
ITEM: BOX BOUNDS pp pp pp
0.0 3.2568742966954001
0.0 4.6059172266267892
0.0 21.0207167550635496
ITEM: ATOMS id type x y z
1 1 0.0 2.3029586133133946 2.4500065792361667
2 1 1.6284371483477 4.6059172266267892 2.4500065792361667
3 1 0.0 0.0 4.7529648364839616
4 1 1.6284371483477 2.3029586133133946 4.7529648364839616
5 1 0.0 2.3029586133133946 7.0559209916600807
6 1 1.6284371483477 4.6059172266267892 7.0559209916600807
7 1 0.0 0.0 9.3588792489078756
8 1 1.6284371483477 2.3029586133133946 9.3588792489078756
9 1 0.0 2.3029586133133946 11.6618375061556706
10 1 1.6284371483477 4.6059172266267892 11.6618375061556706
11 1 0.0 0.0 13.9647957634034672
12 1 1.6284371483477 2.3029586133133946 13.9647957634034672
13 1 0.0 2.3029586133133946 16.267751918579588
14 1 1.6284371483477 4.6059172266267892 16.267751918579588
15 1 0.0 0.0 18.570710175827383
16 1 1.6284371483477 2.3029586133133946 18.570710175827383
ITEM: TIMESTEP energy, energy_weight, force_weight, nsims
27 -26061.7530081753102432 1 1 78
ITEM: NUMBER OF ATOMS
16
ITEM: BOX BOUNDS pp pp pp
0.0 3.2568742966954001
0.0 4.6059172266267892
0.0 21.1207190803435836
ITEM: ATOMS id type x y z
1 1 0.0 2.3029586133133946 2.5000067157425688
2 1 1.6284371483477 4.6059172266267892 2.5000067157425688
3 1 0.0 0.0 4.8029655707531652
4 1 1.6284371483477 2.3029586133133946 4.8029655707531652
5 1 0.0 2.3029586133133946 7.1059223136918508
6 1 1.6284371483477 4.6059172266267892 7.1059223136918508
7 1 0.0 0.0 9.4088811687024485
8 1 1.6284371483477 2.3029586133133946 9.4088811687024485
9 1 0.0 2.3029586133133946 11.711837911641137
10 1 1.6284371483477 4.6059172266267892 11.711837911641137
11 1 0.0 0.0 14.0147967666517275
12 1 1.6284371483477 2.3029586133133946 14.0147967666517275
13 1 0.0 2.3029586133133946 16.3177535095904176
14 1 1.6284371483477 4.6059172266267892 16.3177535095904176
15 1 0.0 0.0 18.6207123646010154
16 1 1.6284371483477 2.3029586133133946 18.6207123646010154
ITEM: TIMESTEP energy, energy_weight, force_weight, nsims
28 -26061.6999762361883776 1 1 78
ITEM: NUMBER OF ATOMS
16
ITEM: BOX BOUNDS pp pp pp
0.0 3.2568742966954001
0.0 4.6059172266267892
0.0 21.2207181487493166
ITEM: ATOMS id type x y z
1 1 0.0 2.3029586133133946 2.5500066949907958
2 1 1.6284371483477 4.6059172266267892 2.5500066949907958
3 1 0.0 0.0 4.8529639113656664
4 1 1.6284371483477 2.3029586133133946 4.8529639113656664
5 1 0.0 2.3029586133133946 7.1559232498123526
6 1 1.6284371483477 4.6059172266267892 7.1559232498123526
7 1 0.0 0.0 9.4588804661872246
8 1 1.6284371483477 2.3029586133133946 9.4588804661872246
9 1 0.0 2.3029586133133946 11.7618376825620956
10 1 1.6284371483477 4.6059172266267892 11.7618376825620956
11 1 0.0 0.0 14.0647948989369649
12 1 1.6284371483477 2.3029586133133946 14.0647948989369649
13 1 0.0 2.3029586133133946 16.3677542373836502
14 1 1.6284371483477 4.6059172266267892 16.3677542373836502
15 1 0.0 0.0 18.6707114537585214
16 1 1.6284371483477 2.3029586133133946 18.6707114537585214
ITEM: TIMESTEP energy, energy_weight, force_weight, nsims
29 -26061.6516365991774368 1 1 78
ITEM: NUMBER OF ATOMS
16
ITEM: BOX BOUNDS pp pp pp
0.0 3.2568742966954001
0.0 4.6059172266267892
0.0 21.3207204740293506
ITEM: ATOMS id type x y z
1 1 0.0 2.3029586133133946 2.600006427934647