ITEM: TIMESTEP energy, energy_weight, force_weight, nsims
0 -89582.2297817290973470 1 1 460
ITEM: NUMBER OF ATOMS
55
ITEM: BOX BOUNDS xy xz yz pp pp pp
-0.3342127016387925 9.5751977320304996 -0.1671063508193963
-0.1700555117208617 9.57374230197523 -0.1671063508193963
0.0 9.572229420733569 -0.1700555117208617
ITEM: ATOMS id type x y z
1 1 -0.017133680742168 -0.0469278246441299 -0.0558175841981816
2 1 1.465159457312583 1.5311236043941658 1.5779504316508408
3 1 0.0053220694782977 -0.0851180678768336 3.2511981505227361
4 1 1.4694005359230056 1.5107491752633934 4.8352240761869156
5 1 -0.1547460077969447 -0.0944426383472212 6.3481053639044367
6 1 1.4228795626944355 1.4209794855435094 7.9270024890449874
7 1 -0.0359137497424451 3.260512072856185 0.023448133189029
8 1 1.5293474576371668 4.6977432860439938 1.6062928457426906
9 1 -0.1613606098574368 3.1096776050280255 3.1550833949091506
10 1 1.3754686292889083 4.6335941148391094 4.737936722469291
11 1 -0.1597661152452041 3.0139574138558385 6.3434015703670888
12 1 1.3561700253102462 4.6239358749408216 8.0164798607782366
13 1 -0.1159814176541656 6.4033973180559167 0.0161253776821678
14 1 1.4138557465688671 7.9774794845511208 1.572184120647791
15 1 -0.217973133628009 6.3492551162780169 3.1178866686031221
16 1 1.3036309851003352 7.926563130296568 4.7102413910862824
17 1 -0.1685020049413357 6.2695017302402345 6.3444822750686889
18 1 1.25432166887512 7.8757236254759464 7.9569252782142002
19 1 3.2195116502964871 0.0745213063398427 0.0092008269192091
20 1 4.7547090866353088 1.6168300451222168 1.5340627169797194
21 1 3.1428298201481608 -0.0849057529652976 3.1594368448497003
22 1 4.6224213944036744 1.5632489164488624 4.7998068273302028
23 1 3.0242489612005024 -0.1096277201869777 6.33491196009384
24 1 4.557685121550823 1.4705849029849246 7.9052294960045862
25 1 3.0900649567016103 3.1611812164547391 0.0542419952355288
26 1 4.6606699203597524 4.7604593656243496 1.550709781165317
27 1 3.0952836636362662 3.1273633747080023 3.1790532146016095
28 1 4.6686313236535498 4.7338113309248522 4.7317798645058744
29 1 3.0802987087835598 3.0984583195174418 6.357294704148341
30 1 4.619140541551806 4.6509415110263444 8.009311218165049
31 1 3.0907593413545178 6.3490545477517877 0.0736420326025296
32 1 4.652747131628452 7.9633230777016148 1.5431754793882574
33 1 3.0903147352368774 6.2923226089862636 3.2647543418283793
34 1 4.559852754840211 7.823289176721195 4.8188871522345514
35 1 2.919151215017434 6.2819449940269268 6.4202895459661882
36 1 4.5123309193114062 7.8422121122600688 8.0199526656120792
37 1 6.3399910384483391 0.0476274867476991 -0.0065225171272879
38 1 7.9969533256444372 1.6213608097463724 1.5860935272190586
39 1 6.2894259081419231 -0.0876970052287404 3.1828533896816409
40 1 7.909408225998403 1.5729776340538456 4.797819632502458
41 1 6.2114688031617931 -0.1451814994977657 6.3928842531346284
42 1 7.7524568974393686 1.4288183984841776 8.0455631654272501
43 1 6.2587049945478413 3.2324612875224919 -0.0206492133064065
44 1 7.8131849496208758 4.705620168573332 1.6538993715437666
45 1 6.2603656251542202 3.1428573175345731 3.2020753835814158
46 1 7.7432067261902446 4.6499440282998084 4.8090239270394264
47 1 6.2032277866673598 3.0284222582003144 6.3679820982965891
48 1 7.7994681752632022 4.5960649241916904 7.949056905630357
49 1 6.3407025666042074 6.3215746300000619 0.0456423043239418
50 1 7.7489660259424308 8.0211721452572977 1.5622136864831546
51 1 6.18953386869351 6.2701151393916028 3.1967580101381983
52 1 7.7870937879382104 7.878704247880366 4.7218132592330076
53 1 6.2165242765147832 6.2069436527901321 6.4388098954494231
54 1 7.7171057707923456 7.7946120080883326 7.959997006635314
55 1 1.4781256963649534 3.1097789892055929 1.5671271118448172
ITEM: TIMESTEP energy, energy_weight, force_weight, nsims
1 -89583.3344746540740320 1 1 460
ITEM: NUMBER OF ATOMS
55
ITEM: BOX BOUNDS xy xz yz pp pp pp
-0.2673778214692197 9.5751977320304996 -0.1336889107346099
-0.1355656494900878 9.5742689378504924 -0.1336889107346099
0.0 9.5733018428795572 -0.1355656494900878
ITEM: ATOMS id type x y z
1 1 0.0530872250312829 0.0201997876546997 -0.0224465208309997
2 1 1.5657071824019918 1.5096273672636914 1.5206596432699918
3 1 -0.0805486173262317 -0.0659638584851233 3.1941503491502661
4 1 1.5355723008622434 1.5012169892793594 4.8237541673922264
5 1 -0.0200650814864483 -0.0800305517575531 6.3916925191434642
6 1 1.4316232208902005 1.5356405898376858 7.9929354306758942
7 1 -0.0655366649679699 3.1962074919560415 0.0384980760309559
8 1 1.4616833270125686 4.7423830228226516 1.5999055212649804
9 1 -0.0217543507738696 3.2145355406137002 3.1573266436116296
10 1 1.5289644537954298 4.7414490308394362 4.752779622189487
11 1 -0.085264639605219 3.0763685969269039 6.3949292524965413
12 1 1.4081735665335535 4.7112993336144298 8.007395903109563
13 1 -0.1546519420732262 6.3928007513876049 -0.0147467141587717
14 1 1.4007795755522537 7.9161495839797276 1.6604308075062176
15 1 -0.1755707550165784 6.3233386848536144 3.1248252838550532
16 1 1.4429431552567873 7.8817585040436802 4.7719807936957502
17 1 -0.135841384856289 6.2706201442354557 6.4059040857292189
18 1 1.3009930702755177 7.903775921218565 7.9191099561843448
19 1 3.178880914458631 0.0513266883093279 -0.0223785503879153
20 1 4.7672666173099768 1.5834329775019758 1.550039149295605
21 1 3.1815694194231874 -0.096113459019783 3.1804413809112626
22 1 4.6313218967723052 1.540815740470402 4.862930990523842
23 1 3.0970912812071414 -0.1621674631014999 6.4167238314720408
24 1 4.646361153143947 1.4537335628273934 7.9946337344228206
25 1 3.1820019580857353 3.1992769706834903 0.03478172025555
26 1 4.6544372194190952 4.6998383494057664 1.5731634598970806
27 1 3.1762424852139755 3.0713800132060216 3.167678254894335
28 1 4.6898873826809666 4.7500799321357984 4.7591563985470292
29 1 3.1260954789429638 3.144059413096159 6.3822340969226987
30 1 4.6327794300063508 4.7137734407469188 8.0182730886634435
31 1 3.0917866269414458 6.3586680991777147 -0.0089050853742466
32 1 4.665459194557899 8.0065720814220498 1.549667705184101
33 1 3.1255797067787277 6.269530207518871 3.1834531416710323
34 1 4.5821075673588698 7.9551221335284224 4.7426491541793512
35 1 2.9454200887046204 6.2255511196543134 6.3095631626333999
36 1 4.6303889065510636 7.8337398545374138 7.9770054564093424
37 1 6.3116707303358979 -0.0360340988936879 -0.0325616715581862
38 1 7.9920033734676644 1.5478316336808372 1.644654006069152
39 1 6.3538844301126467 -0.089850321146268 3.1570049806697092
40 1 7.8249141070741742 1.5342134869573802 4.8045711851594648
41 1 6.2405673408741462 -0.095724082318061 6.4413434918213737
42 1 7.9079509227165624 1.5322489877018446 7.9874192941540274
43 1 6.3507891253160365 3.2286161815385404 0.0672476587953075
44 1 7.9431955749496196 4.7935486212388804 1.575718574158945
45 1 6.3007305000064049 3.1003002496724643 3.1498824440986062
46 1 7.7703922191073486 4.7003850034852804 4.8536544610380928
47 1 6.2321920403742697 3.0627017527375089 6.4232959031871779
48 1 7.804171620410811 4.6340882381285572 7.9880846386321078
49 1 6.2591671530849222 6.3520090209394429 0.0492527233212467
50 1 7.7841150062295874 7.9961898752655136 1.583937253791057
51 1 6.2404091953457322 6.2648806116727576 3.2093039286373597
52 1 7.777900479154023 7.8540522388314304 4.7309582379688272
53 1 6.1334469972223973 6.3634941852005618 6.3125471608178261
54 1 7.8237879835232782 7.7999989369657312 8.0500420908290398
55 1 1.523462057454418 3.190692231153033 1.5446359777354838
ITEM: TIMESTEP energy, energy_weight, force_weight, nsims
2 -89582.2036928395766640 1 1 460
ITEM: NUMBER OF ATOMS
55
ITEM: BOX BOUNDS xy xz yz pp pp pp
-0.2005237909041827 9.5751977320304996 -0.1002618954520914
-0.1013247424003467 9.574671096155237 -0.1002618954520914
0.0 9.5741348850822448 -0.1013247424003467
ITEM: ATOMS id type x y z
1 1 0.0105959063703363 -0.0110906626732333 0.0477988684137731
2 1 1.6085803421769246 1.5490342593205818 1.636621765525729
3 1 -0.0291685462697891 0.0077057508841236 3.2357694096977574
4 1 1.5263888022607164 1.5324104424817918 4.7734472782536042
5 1 0.003229082737534 -0.070129404672608 6.3377173064527659
6 1 1.43892113654454 1.5348857524151918 8.0548853113532051
7 1 -0.0974595525320317 3.1651867638342877 -0.0303653262015269
8 1 1.5732576180769934 4.7081295514945368 1.5708886276452202
9 1 -0.1317529583512045 3.2060209094812646 3.2544361004832023
10 1 1.508103340107905 4.6740861064429202 4.7848357116994098
11 1 -0.0805604326127475 3.1938970516331233 6.3729089540498638
12 1 1.4922203227173162 4.6297553661583182 7.9369262250880598
13 1 -0.1205412003737001 6.439526031945924 0.0235600311252104
14 1 1.47669487887095 8.0366514122348001 1.5893035186831872
15 1 -0.0516444480530734 6.284571667310118 3.1706547609308244
16 1 1.535935843611543 7.9919838230204378 4.7109789203689082
17 1 -0.1070328939156902 6.3177222674132496 6.3555644512920484
18 1 1.4179744226853015 7.844448827788857 7.95144348581431
19 1 3.1534949913310655 0.0145829983328056 0.0191970978580784
20 1 4.7820368016553028 1.6555625199187072 1.532264652691821
21 1 3.1860222290132017 -0.0065708797332419 3.174867380280261
22 1 4.645125318932693 1.5522866490756406 4.8089883817740064
23 1 3.1779033856618746 -0.1086066840989324 6.3458170245655463
24 1 4.7166949705855084 1.5017540285638682 8.0248952912391722
25 1 3.1719883036894503 3.1564681317104473 5.6966102566239362e-04
26 1 4.6726052037256336 4.7544017901132404 1.542231327107192
27 1 3.0572900831252468 3.2199587692217784 3.1199051441454691
28 1 4.6952740274210766 4.7214598238374164 4.753517759076817
29 1 3.126943027253275 3.2004843665699263 6.3605200235085668
30 1 4.6944803423930078 4.6371321864210726 7.9152570856026526
31 1 3.0597865389023382 6.3477110580058236 0.0551891431315681
32 1 4.695045258107708 7.9125801543213088 1.5362685559007626
33 1 3.0592528543764459 6.4053984488514573 3.1798660361037627
34 1 4.722534379743446 7.9026651616479012 4.8609251912851122
35 1 3.121474979078803 6.2825056580177448 6.402519838422446
36 1 4.6657336274836814 7.889856808537462 8.0192867630234925
37 1 6.3748469706084352 0.0649047334870828 -0.0065094543083674
38 1 8.0124495118479153 1.5773819408924398 1.595009703074696
39 1 6.2908749097388217 -0.0526565886972064 3.1310743299024062
40 1 7.9396182709214784 1.5253387158768598 4.775516248802271
41 1 6.3723360939468075 -0.0599246378199192 6.3885540478655765
42 1 7.807478751717805 1.5493705116628572 8.0030270097481573
43 1 6.3595844050726882 3.1584326804668828 0.0120758563305542
44 1 7.8905923468702888 4.834674381407611 1.6260538354395754
45 1 6.2589322553759415 3.2054336152023439 3.258270541504678
46 1 7.9045501715511018 4.8110934966210808 4.8257670531601136
47 1 6.2965853604247917 3.0618062634918855 6.3083639663085931
48 1 7.8245484058857162 4.6426136474626284 7.999760314925366
49 1 6.3086589668625157 6.3180873149900929 -0.0522269057981236
50 1 7.8560764716098292 8.0003034517187714 1.6537747855858422
51 1 6.3202853119840992 6.4141462132826783 3.1791096794478406
52 1 7.9072198293437256 7.8636530924612496 4.85360385033849
53 1 6.1751108650254523 6.3804711451280936 6.4368680047361675
54 1 7.7434294186436334 7.8397596622561886 8.0547129769252717
55 1 1.6033692861364506 3.1214508636876577 1.5974511074703922
ITEM: TIMESTEP energy, energy_weight, force_weight, nsims
3 -89584.4998525366395440 1 1 460
ITEM: NUMBER OF ATOMS
55
ITEM: BOX BOUNDS xy xz yz pp pp pp
-0.1336889107346099 9.5751977320304996 -0.0668444553673049
-0.0673136400561744 9.5749679272849306 -0.0668444553673049
0.0 9.5747285473416302 -0.0673136400561744
ITEM: ATOMS id type x y z
1 1 0.0190630678510325 0.0558112520241694 0.0260528363773166
2 1 1.5272328181953652 1.5104122919012242 1.5908411481408118
3 1 0.0468317246639082 0.020463914698454 3.1649906720050427
4 1 1.4998113215228742 1.5113568977948352 4.7718714054083612
5 1 -0.0559946062196989 -0.02118447596564 6.3126118289523534
6 1 1.4950013202379462 1.5482591537476616 8.0257921561611152
7 1 0.0461477969503911 3.2082752212159158 0.0058147326468006
8 1 1.5190336370947142 4.8048576146407892 1.5644886227599638
9 1 -0.0100466447279726 3.1672841460370149 3.2059398710563136
10 1 1.5068119836836336 4.719842422782226 4.8026589450523388
11 1 -0.1011407773761434 3.1544774486439149 6.3877495112276179
12 1 1.557010595405263 4.7756195069140174 8.0156285818081106
13 1 0.0198188439665456 6.4456998588937893 -0.0114360557769448
14 1 1.5991460049182848 8.0320176236603569 1.6644028300971832
15 1 -0.1392766649412111 6.3571036248460589 3.2526118853603308
16 1 1.5454549854636124 7.9526546001837816 4.830380656615458
17 1 -0.0681504720081786 6.2995029581059781 6.3225197580531436
18 1 1.490379681678824 7.9812497343767532 8.006108429213489
19 1 3.2294833369965686 0.0334981452459384 0.0618154049744923
20 1 4.8283002775356324 1.6510390183147088 1.5837405294501032
21 1 3.1070454914076104 -0.0287862424832059 3.1665389056111484
22 1 4.6816948232183 1.5015220689439882 4.733790795029874
23 1 3.1936824558252259 -0.0708291942737651 6.3779095626995144
24 1 4.7837136650369462 1.5635996358951526 7.9728879510456316
25 1 3.0931075588716563 3.2157621535495107 0.0321988546318552
26 1 4.7688155666927524 4.7568709112880248 1.5696407841912878
27 1 3.1031372636998431 3.1660343714581618 3.2484669853721866
28 1 4.6584474185187528 4.7928010200776968 4.7606804626822292
29 1 3.0563743254294935 3.1022247842482593 6.3173580218932708
30 1 4.7626906995137928 4.764225850645011 7.9109519044914434
31 1 3.1364272644062901 6.3899774162981178 -0.0588376643962691
32 1 4.689699517664364 7.944660954995011 1.568851826558987
33 1 3.0494478701070422 6.3123285871146777 3.1276664651817958
34 1 4.6762843605989702 8.000719614042243 4.7235199837171412
35 1 3.1063430463733601 6.3703500635512001 6.3361388519388813
36 1 4.6439866763019718 7.8636961730482168 8.0026701441921393
37 1 6.3375688287400989 0.0731358871716546 -0.0125821507840616
38 1 7.9253052564218108 1.6459422572740342 1.6318181139048696
39 1 6.3395817879842227 -0.0849069117844527 3.1211671394438603
40 1 7.9199193263773306 1.5270913285376472 4.8628657956308778
41 1 6.3428217701741225 -0.0553018153756893 6.3430929772828169
42 1 7.897234616511546 1.5562135122103756 7.9907285427478944
43 1 6.4025562910336032 3.2639956923051843 -0.0530076121837927
44 1 7.8862680682407298 4.7515134906852704 1.658063402325988
45 1 6.401048852145701 3.1970468122367031 3.1281959476704642
46 1 7.949883536221277 4.7868413219026716 4.8040243013431896
47 1 6.253265195201192 3.2187232695583585 6.3797565278362969
48 1 7.8276455641227116 4.6659354750715254 7.9037986247937254
49 1 6.3407511743859724 6.3475005393870197 0.0114963765667931
50 1 7.9066611331374324 7.9900747932377322 1.634803514265931
51 1 6.351656869980026 6.3056233701129978 3.1330953362681382
52 1 7.8609844610110908 7.883807779005231 4.8591077146760454
53 1 6.2212973866444958 6.3379296619765455 6.4205171047351844
54 1 7.9351053462111186 7.9005930180472292 7.9314820374426534
55 1 1.5275896147486786 3.160394184708768 1.5546869731460498
ITEM: TIMESTEP energy, energy_weight, force_weight, nsims
4 -89583.122357918136915 1 1 460
ITEM: NUMBER OF ATOMS
55
ITEM: BOX BOUNDS xy xz yz pp pp pp
-0.0668348801695729 9.5751977320304996 -0.0334174400847864
-0.0335419176553028 9.5751402808441082 -0.0334174400847864
0.0 9.5750828296577152 -0.0335419176553028
ITEM: ATOMS id type x y z
1 1 -0.0371084430499656 -0.0352223000935093 0.0230022214816867
2 1 1.6187967015127684 1.6377573531331212 1.5499665330508428
3 1 -0.0063076179484006 -4.9397235464815842e-04 3.1723293098684442
4 1 1.5378193515769952 1.52829958146652 4.7754997906622796
5 1 -0.0372972557612309 -0.0834919909925506 6.4577776907781814
6 1 1.6250014746561284 1.6048799961713852 8.0210114585977976
7 1 -0.0022609495202487 3.1975350597089358 0.0212442362741616
8 1 1.519177771530246 4.8558076506683374 1.5710681005908422
9 1 -0.0108637121265426 3.2476614908381487 3.2513878962680791
10 1 1.5314458353846926 4.8046469401454264 4.7368040084227846
11 1 -0.0613624447582328 3.1966742584315968 6.4416762314918295
12 1 1.520560519859805 4.7551113723610402 8.0175462361217456
13 1 0.0099168359133337 6.3864139525786765 0.0515771411702342
14 1 1.6369568761989864 8.0193747075952349 1.6002941259118064
15 1 -0.0204738348848152 6.4003642642213423 3.1760195467909944
16 1 1.6005669785076972 7.8990932962257876 4.8430194447438942
17 1 -0.0857736140684798 6.3254276534593599 6.4316463322277633
18 1 1.555474775756719 7.8945808033645042 7.92209319290117
19 1 3.2149797794095214 0.0715143665753135 0.0173462200542079
20 1 4.8495077961868462 1.6539307601516982 1.595056555603984
21 1 3.1589884174468281 -0.0732019476538775 3.217733395138398
22 1 4.8025966700307024 1.5394212687915458 4.8498014759121402
23 1 3.2085536846957492 0.0086635814701601 6.3674071015235887
24 1 4.7325578452712938 1.4970636961928164 7.9207593838629986
25 1 3.2181907664328109 3.1810260327602098 -0.0144124146752008
26 1 4.7042495108402038 4.725035441936556 1.6442456711165014
27 1 3.1348183350312304 3.2322211198899118 3.2244579758096665
28 1 4.7815467435466924 4.7269984033444788 4.783241245130058
29 1 3.1860629641526108 3.1366681330448407 6.3456429382517774
30 1 4.7745297859496186 4.7491282258548494 7.971249753132068
31 1 3.2277099324440619 6.4155081751151855 -0.0662768083303248
32 1 4.7721578886802742 8.0150314065819881 1.5295045810438642
33 1 3.1934527734956881 6.3794635056656821 3.1372462063805786
34 1 4.7830293849829628 7.9498549648596218 4.7115382373601662
35 1 3.1918875661251951 6.3016444473693145 6.3757469986682214
36 1 4.658198929238858 7.9747882344204646 8.0223194149123298
37 1 6.4094998868294226 0.0150831475642065 -0.0022970623708349
38 1 7.9983302641480858 1.5908887527090022 1.5904787085031244
39 1 6.3299625780071036 0.0070717362615187 3.2670661368933605
40 1 7.9682875902764252 1.6177275664660936 4.7547247334467714
41 1 6.3662909308277156 0.0159448235846915 6.3965670587730292
42 1 7.9708128906108832 1.492142761443074 8.0531320314581691
43 1 6.3536235565717085 3.1606765621311053 0.0370842957992643
44 1 7.9903670871389148 4.7976969405387528 1.618942557230848
45 1 6.335087515378909 3.2178597011427126 3.1850019319934959
46 1 8.0120403993451621 4.7906146131127222 4.7602993466701982
47 1 6.2741831870703813 3.2037474879873331 6.3276733803053587
48 1 8.0077970398479543 4.7220555376815412 7.9080905917710788
49 1 6.3567522290958936 6.4597924493599504 -0.0663361738438687
50 1 7.9724850906950496 7.9704982499523718 1.6295852617960128
51 1 6.2786221666412043 6.4337904635888155 3.1332811645808172
52 1 7.9767241352251528 7.9399757855581274 4.806804566465563
53 1 6.4144751223043146 6.432522480507549 6.3540881613075353
54 1 7.9247321224901234 7.965284795807456 7.9572969424326914
55 1 1.6063349048274542 3.1702432827414202 1.5220724017514836
ITEM: TIMESTEP energy, energy_weight, force_weight, nsims
5 -89580.2641562662256610 1 1 460
ITEM: NUMBER OF ATOMS
55
ITEM: BOX BOUNDS pp pp pp
0.0 9.5751977320304996
0.0 9.5751977320304996
0.0 9.5751977320304996
ITEM: ATOMS id type x y z
1 1 -0.0655422284757488 -0.0607153712990322 -0.0057709716730948
2 1 1.617626244691047 1.6390794752096612 1.6029943850367312
3 1 0.0422486449530382 0.0524979366054036 3.2545896012019293
4 1 1.583654400657576 1.571894142803096 4.7621680983587504
5 1 -0.0385334682330103 0.011176170792826 6.4461370580559434
6 1 1.6724040358764472 1.5602258068468438 8.0206471448794296
7 1 0.0439635628668448 3.2012308543204164 -0.0483145327162795
8 1 1.6660958956105854 4.7283676503646818 1.6195546895142778
9 1 -0.0698194693026468 3.118729035621695 3.198885888395842
10 1 1.5319109896334564 4.7408297702129198 4.8543533145238734
11 1 0.0409990816490082 3.1551052118056795 6.3530776263378846
12 1 1.620017171564735 4.7958277909461566 8.0332816182868445
13 1 -0.0442699691942698 6.3216154416299802 0.0764186955795622
14 1 1.5579871256170952 8.053827120060463 1.6102839830701262
15 1 -0.012878640949581 6.3147011913476803 3.1687699764890596
16 1 1.5871608380670454 8.0098836651088554 4.7541421676197624
17 1 0.0345932743662798 6.3879974149468266 6.4204879758911542
18 1 1.6271593115530566 8.0378853733564046 8.0263118318576989
19 1 3.2062482579320006 -0.0196396880681678 0.0609968821123539
20 1 4.8632553758553422 1.5578904161200016 1.5208209956202186
21 1 3.1489454871046641 -0.0310753467195318 3.191958232836718
22 1 4.7429238659569154 1.64146465696471 4.7499386558154004
23 1 3.1575938056962336 0.0025996661842463 6.3692807759400276
24 1 4.7570080243009586 1.5531296278076362 7.9041514591924544
25 1 3.1604098713492244 3.194880583184534 0.0010178435189148
26 1 4.7492817972509834 4.7997517069767426 1.6075129208464766
27 1 3.1792107720960656 3.2074662230835149 3.1839485799338743
28 1 4.8516186380516056 4.8425011347711662 4.7949171896418408
29 1 3.2059351489661632 3.2069357571291604 6.4597185185190558
30 1 4.8275245679984976 4.735381482703395 7.9614829556129862
31 1 3.1315894836955853 6.4065340402362647 -0.0364977811951807
32 1 4.8538084857729214 7.978235721564947 1.5982230640068604
33 1 3.2457325432998015 6.3641810256279481 3.2390749083167205
34 1 4.8557053324436366 8.0285313626919841 4.8293103423755214
35 1 3.1927596768868889 6.3385558814574879 6.4569886296456538
36 1 4.8321015125144076 8.0119576529376122 7.9181896565873844
37 1 6.3182861453785524 -0.0658246968088437 0.0539313437058886
38 1 7.970679933034602 1.625411837966961 1.60202250246693
39 1 6.3367423390070412 -0.0713237328663488 3.1993723084406298
40 1 7.924673022971743 1.666901169739849 4.835991915352932
41 1 6.4594216873893632 -0.0579404789962898 6.4531997239030892
42 1 7.932135932084087 1.5621552091898482 7.9832837658092748
43 1 6.3292631520585525 3.2485572266307506 0.0254068296621697
44 1 8.0391885577677336 4.7119969348022296 1.6178455167191106
45 1 6.4570058650015714 3.12337013396241 3.1641001525551484
46 1 7.9414889852287346 4.7909942311310276 4.7293864514033706
47 1 6.3904486655662272 3.2050963616448369 6.3224140131208309
48 1 7.9985447159545844 4.7326573389486316 7.982455511205453
49 1 6.3717923503051397 6.3351241305903283 -0.0494118503763702
50 1 7.9342788613365158 7.9978093407687644 1.582837636291034
51 1 6.4264753470329916 6.4350710020370361 3.2442215770976866
52 1 7.9413817430141362 7.9436826630291426 4.7374439802948736
53 1 6.4338099484957274 6.4400185067051759 6.4088158098558079
54 1 7.9099655192553434 7.9094369683405352 7.9473710291955202
55 1 1.6070121380050912 3.1476087895012723 1.5589570931473498
ITEM: TIMESTEP energy, energy_weight, force_weight, nsims
6 -89583.7757226191035960 1 1 460
ITEM: NUMBER OF ATOMS
55
ITEM: BOX BOUNDS xy xz yz pp pp pp
0.0 9.6420326122000724 0.0334174400847864
0.0 9.6084428185561102 0.0334174400847864
0.0 9.5750828296577152 0.0333025377120021
ITEM: ATOMS id type x y z
1 1 0.0215183640776509 -0.049548850317709 -0.0601229025957038
2 1 1.5816453028043996 1.559441918605733 1.6705656587986646
3 1 0.0374057681449592 0.0203945376396723 3.1983189571929844
4 1 1.5839580764354388 1.6141948111018942 4.8388418361053152
5 1 0.0218117870306135 0.0781729807698204 6.4312355611743701
6 1 1.5829204848180672 1.5867447527386962 7.9940719630565562
7 1 -0.03487779593775 3.1376781801754024 0.0543673203067965
8 1 1.6689832851400698 4.7892988850037322 1.586968483137772
9 1 0.0102489556012258 3.2696297044174636 3.1362044373687117
10 1 1.5828577058576042 4.8320615976381438 4.801165800187178
11 1 0.0546827912153841 3.1741785555252831 6.3521731447416041
12 1 1.5879200071404698 4.8880811877893216 8.0255768580909788
13 1 0.081587363185814 6.3656977799834707 0.0349452222951188
14 1 1.6633117179034702 8.0153773820578422 1.5550939899061246
15 1 0.0116043657167139 6.4645853357439896 3.1721033379136645
16 1 1.5786547731133256 7.978405416727508 4.7289332903368058
17 1 0.0128013100536391 6.3713411232772286 6.3541714645281538
18 1 1.6608118162406052 7.9377585900552044 8.0239280288277115
19 1 3.1368433209621278 0.0367522309944906 0.0137565215013692
20 1 4.8014920905023502 1.5944612414755314 1.570126869948687
21 1 3.1318838060851717 0.0255720445743901 3.1964575610908987
22 1 4.7992564406461514 1.6189854016771598 4.8540260024565854
23 1 3.2867767741605358 0.0858185570840678 6.4174206316677403
24 1 4.8897176301650688 1.631069197147903 8.0037542868139067
25 1 3.2713478684975703 3.2079956948125328 -0.0112698724905071
26 1 4.8535463973194046 4.766579564604287 1.5469388918601048
27 1 3.2072918546154794 3.1474629144623592 3.1696626493003848
28 1 4.875263406534165 4.7595577508403544 4.8303688453093514
29 1 3.2042983805702532 3.1489888869009537 6.3135309829659541
30 1 4.8876167472528156 4.8126914096076296 8.0093595403023876
31 1 3.2339917662042575 6.323758887755413 0.0388633461890147
32 1 4.89574094618746 7.9145043910691966 1.605794053489162
33 1 3.1774875342737996 6.3446302175708924 3.1741236803907222
34 1 4.8098134015466458 8.0312810606157221 4.7536542391864156
35 1 3.2368391973324586 6.3382489391794357 6.3460441342223408
36 1 4.8880060304690094 7.9865719895794172 8.0358499644589188
37 1 6.3459308059450361 -0.0558511460533136 -0.0322996269092844
38 1 7.9473576920270776 1.6509531971598796 1.5485341006595258
39 1 6.3810392340403413 0.0392996420002045 3.2024333702848877
40 1 8.0047283390564861 1.5924411396155322 4.8050054084018702
41 1 6.438194266116108 0.0826684871412776 6.4257231859893365
42 1 7.9769287481808498 1.6593414727689082 8.0160735883825449
43 1 6.3990028786548772 3.2268417669778988 0.0526811482204938
44 1 8.0186493379462167 4.8193395189388824 1.537846393205062
45 1 6.3412576245733679 3.1645902438188376 3.1994746696905239
46 1 8.0528094390422282 4.739780757925911 4.7759909924114412
47 1 6.4292965294322704 3.1491699309670436 6.3732929049389808
48 1 8.0526039214888758 4.8630144770903474 8.0363277610921191
49 1 6.4180292337615246 6.4503512505893026 -0.0348054260858058
50 1 8.0876192973625862 7.932143032097036 1.6251443383796174
51 1 6.379639042075163 6.4385118879224281 3.1282322234047384
52 1 8.0748290509807426 8.0476687818059478 4.7252602885633488
53 1 6.4892179602082338 6.4105017242792864 6.3162349863570491
54 1 8.0353581283758881 7.9959992456997382 8.0040673920224368
55 1 1.609334156317187 3.1942235465673994 1.6713153877842266
ITEM: TIMESTEP energy, energy_weight, force_weight, nsims
7 -89584.2257546368182380 1 1 460
ITEM: NUMBER OF ATOMS
55
ITEM: BOX BOUNDS xy xz yz pp pp pp
0.0 9.7088866427651102 0.0668444553673049
0.0 9.6413431979633658 0.0668444553673049
0.0 9.5747381225393618 0.0663752706784354
ITEM: ATOMS id type x y z
1 1 -0.0403129451288783 -0.0580503476225151 0.0289779449278654
2 1 1.551791196395423 1.5495960958326616 1.557797445377595
3 1 0.0692753594680727 0.0407721336483625 3.2201404988413849
4 1 1.6382563027330014 1.6635504794364556 4.7774965487915306
5 1 0.0193820368493721 0.048392068868075 6.3256656375130991
6 1 1.6126730989732616 1.608677693193116 7.9472796699512314
7 1 0.0961302668728051 3.1523719511068271 -0.0136057028721284
8 1 1.6778819543016664 4.7942114767333602 1.629427018746124
9 1 0.0062216958001306 3.192024858728622 3.1322386580335997
10 1 1.654568226864805 4.8030853721840706 4.7984355435917126
11 1 0.0825530882159742 3.1927506999015503 6.3307019497655555
12 1 1.7412655438044742 4.8441559493296716 8.046433743000625
13 1 0.0142255127367738 6.3618595537455765 0.0737561227055452
14 1 1.727162155297824 7.9800531512507566 1.5548331064548566
15 1 0.0620022700685159 6.4743499017651534 3.176187663489868
16 1 1.761890158133948 8.0873853453039626 4.8115280405004714
17 1 0.1648197613019304 6.442404390303067 6.3426579252591697
18 1 1.6708806401982486 8.0371670596524023 7.9984537727947682
19 1 3.2138911075363401 0.0564448306095049 -0.046765893411919
20 1 4.7501265853851136 1.5566486647525316 1.615204702738904
21 1 3.2814727119819796 0.0706139081190066 3.228489670484239
22 1 4.866082941328469 1.5871030263514786 4.8244644691778352
23 1 3.3081368811213747 0.0927277041402581 6.4180254763907385
24 1 4.86091517955603 1.631735857097288 8.0432338655200724
25 1 3.2868737974387736 3.2058666906916495 0.0227706422030231
26 1 4.8628593721736326 4.8326970195122386 1.576100514772641
27 1 3.2114554937443449 3.2363705122276154 3.2648554833474561
28 1 4.860666333337659 4.8445163482169572 4.852315467428678
29 1 3.3313457303153715 3.2868722748099808 6.3432190049131512
30 1 4.8963424579057326 4.9056988531975038 7.950825195478008
31 1 3.2899696051199818 6.3177767998936148 0.0591728390711055
32 1 4.815387516668288 7.9842074814307952 1.5663993901068842
33 1 3.2064207359917276 6.4369089868649274 3.2409780014174668
34 1 4.9133643799762678 7.9684556304196796 4.8555890703927744
35 1 3.2856514383314748 6.4781195402910114 6.3144181926405523
36 1 4.9210677423742358 8.0314544584651149 8.0371022032263983
37 1 6.4378961647933482 0.0253579540688273 0.0589210234584827
38 1 7.975575494889183 1.5995499788567038 1.60880973514686
39 1 6.3457538888897087 0.0257843570461657 3.1161243737733662
40 1 7.993606805648934 1.5757925733533458 4.816519351483752
41 1 6.5030218280021526 -0.0275249472715669 6.3371342588362776
42 1 8.0763656567472744 1.685650983777198 7.978927051867661
43 1 6.3574345874182248 3.2551076980422464 -0.0757352210754741
44 1 8.038787487745493 4.766880210088683 1.5416515644815568
45 1 6.4260940635402211 3.2060319904477823 3.2385785720439589
46 1 7.9774563793481236 4.888679942786145 4.814472272473152
47 1 6.4728373330933754 3.2951451188097263 6.4169856598306314
48 1 8.0049267040654417 4.8189882739808444 7.9298785408873282
49 1 6.3816659156557547 6.3220841846034866 0.0116026676568932
50 1 8.0497556812468893 8.0494405823423953 1.6578065425413306
51 1 6.4776552593404962 6.3313840082166317 3.16801945439753
52 1 8.064958255473428 8.0565031921593135 4.7532399072318886
53 1 6.4901515704235272 6.5020205797314424 6.4326499313991059
54 1 8.0662564103407526 7.9859183593044048 7.9319313647408016
55 1 1.6398038142677008 3.1266432585419675 1.670249872205383
ITEM: TIMESTEP energy, energy_weight, force_weight, nsims
8 -89583.0922580953506510 1 1 460
ITEM: NUMBER OF ATOMS
55
ITEM: BOX BOUNDS xy xz yz pp pp pp
0.0 9.775721522934683 0.1002618954520914
0.0 9.6738892950545364 0.1002618954520914
0.0 9.574154035477708 0.0992181988993
ITEM: ATOMS id type x y z