ITEM: TIMESTEP energy, energy_weight, force_weight, nsims
0 -3254.0947367287990346 1 1 99
ITEM: NUMBER OF ATOMS
2
ITEM: BOX BOUNDS pp pp pp
0.0 2.7248924082757
0.0 2.7248924082757
0.0 2.7248924082757
ITEM: ATOMS id type x y z
1 1 0.0 0.0 0.0
2 1 1.36244620413785 1.36244620413785 1.36244620413785
ITEM: TIMESTEP energy, energy_weight, force_weight, nsims
1 -3255.6846235967982468 1 1 99
ITEM: NUMBER OF ATOMS
2
ITEM: BOX BOUNDS pp pp pp
0.0 2.8300928453768996
0.0 2.8300928453768996
0.0 2.8300928453768996
ITEM: ATOMS id type x y z
1 1 0.0 0.0 0.0
2 1 1.4150464226884498 1.4150464226884498 1.4150464226884498
ITEM: TIMESTEP energy, energy_weight, force_weight, nsims
2 -3255.8281914697267892 1 1 99
ITEM: NUMBER OF ATOMS
2
ITEM: BOX BOUNDS pp pp pp
0.0 2.8415759916801996
0.0 2.8415759916801996
0.0 2.8415759916801996
ITEM: ATOMS id type x y z
1 1 0.0 0.0 0.0
2 1 1.4207879958400995 1.4207879958400995 1.4207879958400995
ITEM: TIMESTEP energy, energy_weight, force_weight, nsims
3 -3255.9658493386232296 1 1 99
ITEM: NUMBER OF ATOMS
2
ITEM: BOX BOUNDS pp pp pp
0.0 2.8529533025336998
0.0 2.8529533025336998
0.0 2.8529533025336998
ITEM: ATOMS id type x y z
1 1 0.0 0.0 0.0
2 1 1.4264766512668501 1.4264766512668501 1.4264766512668501
ITEM: TIMESTEP energy, energy_weight, force_weight, nsims
4 -3256.0977646885235118 1 1 99
ITEM: NUMBER OF ATOMS
2
ITEM: BOX BOUNDS pp pp pp
0.0 2.8643306133871996
0.0 2.8643306133871996
0.0 2.8643306133871996
ITEM: ATOMS id type x y z
1 1 0.0 0.0 0.0
2 1 1.4321653066935998 1.4321653066935998 1.4321653066935998
ITEM: TIMESTEP energy, energy_weight, force_weight, nsims
5 -3256.2241021472846114 1 1 99
ITEM: NUMBER OF ATOMS
2
ITEM: BOX BOUNDS pp pp pp
0.0 2.8756550065157996
0.0 2.8756550065157996
0.0 2.8756550065157996
ITEM: ATOMS id type x y z
1 1 0.0 0.0 0.0
2 1 1.4378275032578998 1.4378275032578998 1.4378275032578998
ITEM: TIMESTEP energy, energy_weight, force_weight, nsims
6 -3256.3450213086903204 1 1 99
ITEM: NUMBER OF ATOMS
2
ITEM: BOX BOUNDS pp pp pp
0.0 2.8869264819194998
0.0 2.8869264819194998
0.0 2.8869264819194998
ITEM: ATOMS id type x y z
1 1 0.0 0.0 0.0
2 1 1.4434632409597501 1.4434632409597501 1.4434632409597501
ITEM: TIMESTEP energy, energy_weight, force_weight, nsims
7 -3256.4606697935873854 1 1 99
ITEM: NUMBER OF ATOMS
2
ITEM: BOX BOUNDS pp pp pp
0.0 2.8981450395982998
0.0 2.8981450395982998
0.0 2.8981450395982998
ITEM: ATOMS id type x y z
1 1 0.0 0.0 0.0
2 1 1.4490725197991501 1.4490725197991501 1.4490725197991501
ITEM: TIMESTEP energy, energy_weight, force_weight, nsims
8 -3256.5711916853638286 1 1 99
ITEM: NUMBER OF ATOMS
2
ITEM: BOX BOUNDS pp pp pp
0.0 2.9093106795521994
0.0 2.9093106795521994
0.0 2.9093106795521994
ITEM: ATOMS id type x y z
1 1 0.0 0.0 0.0
2 1 1.4546553397760996 1.4546553397760996 1.4546553397760996
ITEM: TIMESTEP energy, energy_weight, force_weight, nsims
9 -3256.6767297068508924 1 1 99
ITEM: NUMBER OF ATOMS
2
ITEM: BOX BOUNDS pp pp pp
0.0 2.9204763195061
0.0 2.9204763195061
0.0 2.9204763195061
ITEM: ATOMS id type x y z
1 1 0.0 0.0 0.0
2 1 1.46023815975305 1.46023815975305 1.46023815975305
ITEM: TIMESTEP energy, energy_weight, force_weight, nsims
10 -3256.7774102541461616 1 1 99
ITEM: NUMBER OF ATOMS
2
ITEM: BOX BOUNDS pp pp pp
0.0 2.9315361240101994
0.0 2.9315361240101994
0.0 2.9315361240101994
ITEM: ATOMS id type x y z
1 1 0.0 0.0 0.0
2 1 1.4657680620050998 1.4657680620050998 1.4657680620050998
ITEM: TIMESTEP energy, energy_weight, force_weight, nsims
11 -3254.3004615500644832 1 1 99
ITEM: NUMBER OF ATOMS
2
ITEM: BOX BOUNDS pp pp pp
0.0 2.7367988963782
0.0 2.7367988963782
0.0 2.7367988963782
ITEM: ATOMS id type x y z
1 1 0.0 0.0 0.0
2 1 1.3683994481891 1.3683994481891 1.3683994481891
ITEM: TIMESTEP energy, energy_weight, force_weight, nsims
12 -3256.873374281348788 1 1 99
ITEM: NUMBER OF ATOMS
2
ITEM: BOX BOUNDS pp pp pp
0.0 2.9425959285142996
0.0 2.9425959285142996
0.0 2.9425959285142996
ITEM: ATOMS id type x y z
1 1 0.0 0.0 0.0
2 1 1.4712979642571498 1.4712979642571498 1.4712979642571498
ITEM: TIMESTEP energy, energy_weight, force_weight, nsims
13 -3256.9647371640157872 1 1 99
ITEM: NUMBER OF ATOMS
2
ITEM: BOX BOUNDS pp pp pp
0.0 2.9536028152934998
0.0 2.9536028152934998
0.0 2.9536028152934998
ITEM: ATOMS id type x y z
1 1 0.0 0.0 0.0
2 1 1.47680140764675 1.47680140764675 1.47680140764675
ITEM: TIMESTEP energy, energy_weight, force_weight, nsims
14 -3257.0516286996489728 1 1 99
ITEM: NUMBER OF ATOMS
2
ITEM: BOX BOUNDS pp pp pp
0.0 2.9646097020726994
0.0 2.9646097020726994
0.0 2.9646097020726994
ITEM: ATOMS id type x y z
1 1 0.0 0.0 0.0
2 1 1.4823048510363498 1.4823048510363498 1.4823048510363498
ITEM: TIMESTEP energy, energy_weight, force_weight, nsims
15 -3257.1341646719711208 1 1 99
ITEM: NUMBER OF ATOMS
2
ITEM: BOX BOUNDS pp pp pp
0.0 2.9755107534020996
0.0 2.9755107534020996
0.0 2.9755107534020996
ITEM: ATOMS id type x y z
1 1 0.0 0.0 0.0
2 1 1.4877553767010498 1.4877553767010498 1.4877553767010498
ITEM: TIMESTEP energy, energy_weight, force_weight, nsims
16 -3257.2124619531564352 1 1 99
ITEM: NUMBER OF ATOMS
2
ITEM: BOX BOUNDS pp pp pp
0.0 2.9864118047315
0.0 2.9864118047315
0.0 2.9864118047315
ITEM: ATOMS id type x y z
1 1 0.0 0.0 0.0
2 1 1.49320590236575 1.49320590236575 1.49320590236575
ITEM: TIMESTEP energy, energy_weight, force_weight, nsims
17 -3257.2866378235462436 1 1 99
ITEM: NUMBER OF ATOMS
2
ITEM: BOX BOUNDS pp pp pp
0.0 2.9972599383359996
0.0 2.9972599383359996
0.0 2.9972599383359996
ITEM: ATOMS id type x y z
1 1 0.0 0.0 0.0
2 1 1.4986299691679998 1.4986299691679998 1.4986299691679998
ITEM: TIMESTEP energy, energy_weight, force_weight, nsims
18 -3257.3568009919499672 1 1 99
ITEM: NUMBER OF ATOMS
2
ITEM: BOX BOUNDS pp pp pp
0.0 3.0081080719404998
0.0 3.0081080719404998
0.0 3.0081080719404998
ITEM: ATOMS id type x y z
1 1 0.0 0.0 0.0
2 1 1.50405403597025 1.50405403597025 1.50405403597025
ITEM: TIMESTEP energy, energy_weight, force_weight, nsims
19 -3257.4230612556229972 1 1 99
ITEM: NUMBER OF ATOMS
2
ITEM: BOX BOUNDS pp pp pp
0.0 3.0188503700951994
0.0 3.0188503700951994
0.0 3.0188503700951994
ITEM: ATOMS id type x y z
1 1 0.0 0.0 0.0
2 1 1.5094251850475998 1.5094251850475998 1.5094251850475998
ITEM: TIMESTEP energy, energy_weight, force_weight, nsims
20 -3257.4855231056371852 1 1 99
ITEM: NUMBER OF ATOMS
2
ITEM: BOX BOUNDS pp pp pp
0.0 3.0295926682498999
0.0 3.0295926682498999
0.0 3.0295926682498999
ITEM: ATOMS id type x y z
1 1 0.0 0.0 0.0
2 1 1.51479633412495 1.51479633412495 1.51479633412495
ITEM: TIMESTEP energy, energy_weight, force_weight, nsims
21 -3257.5442957950235724 1 1 99
ITEM: NUMBER OF ATOMS
2
ITEM: BOX BOUNDS pp pp pp
0.0 3.0402820486796998
0.0 3.0402820486796998
0.0 3.0402820486796998
ITEM: ATOMS id type x y z
1 1 0.0 0.0 0.0
2 1 1.5201410243398502 1.5201410243398502 1.5201410243398502
ITEM: TIMESTEP energy, energy_weight, force_weight, nsims
22 -3254.4983470920747096 1 1 99
ITEM: NUMBER OF ATOMS
2
ITEM: BOX BOUNDS pp pp pp
0.0 2.7485995490308994
0.0 2.7485995490308994
0.0 2.7485995490308994
ITEM: ATOMS id type x y z
1 1 0.0 0.0 0.0
2 1 1.3742997745154495 1.3742997745154495 1.3742997745154495
ITEM: TIMESTEP energy, energy_weight, force_weight, nsims
23 -3257.5994771481045972 1 1 99
ITEM: NUMBER OF ATOMS
2
ITEM: BOX BOUNDS pp pp pp
0.0 3.0509714291095
0.0 3.0509714291095
0.0 3.0509714291095
ITEM: ATOMS id type x y z
1 1 0.0 0.0 0.0
2 1 1.52548571455475 1.52548571455475 1.52548571455475
ITEM: TIMESTEP energy, energy_weight, force_weight, nsims
24 -3257.651169887222750 1 1 99
ITEM: NUMBER OF ATOMS
2
ITEM: BOX BOUNDS pp pp pp
0.0 3.0615549740894998
0.0 3.0615549740894998
0.0 3.0615549740894998
ITEM: ATOMS id type x y z
1 1 0.0 0.0 0.0
2 1 1.53077748704475 1.53077748704475 1.53077748704475
ITEM: TIMESTEP energy, energy_weight, force_weight, nsims
25 -3257.6994696598003432 1 1 99
ITEM: NUMBER OF ATOMS
2
ITEM: BOX BOUNDS pp pp pp
0.0 3.0721914367943999
0.0 3.0721914367943999
0.0 3.0721914367943999
ITEM: ATOMS id type x y z
1 1 0.0 0.0 0.0
2 1 1.5360957183972 1.5360957183972 1.5360957183972
ITEM: TIMESTEP energy, energy_weight, force_weight, nsims
26 -3257.7444717050952932 1 1 99
ITEM: NUMBER OF ATOMS
2
ITEM: BOX BOUNDS pp pp pp
0.0 3.0827220640494999
0.0 3.0827220640494999
0.0 3.0827220640494999
ITEM: ATOMS id type x y z
1 1 0.0 0.0 0.0
2 1 1.54136103202475 1.54136103202475 1.54136103202475
ITEM: TIMESTEP energy, energy_weight, force_weight, nsims
27 -3257.7862705820830344 1 1 99
ITEM: NUMBER OF ATOMS
2
ITEM: BOX BOUNDS pp pp pp
0.0 3.0932526913045995
0.0 3.0932526913045995
0.0 3.0932526913045995
ITEM: ATOMS id type x y z
1 1 0.0 0.0 0.0
2 1 1.5466263456522996 1.5466263456522996 1.5466263456522996
ITEM: TIMESTEP energy, energy_weight, force_weight, nsims
28 -3257.82495418299186 1 1 99
ITEM: NUMBER OF ATOMS
2
ITEM: BOX BOUNDS pp pp pp
0.0 3.1037304008347997
0.0 3.1037304008347997
0.0 3.1037304008347997
ITEM: ATOMS id type x y z
1 1 0.0 0.0 0.0
2 1 1.5518652004173998 1.5518652004173998 1.5518652004173998
ITEM: TIMESTEP energy, energy_weight, force_weight, nsims
29 -3257.860613257228124 1 1 99
ITEM: NUMBER OF ATOMS
2
ITEM: BOX BOUNDS pp pp pp
0.0 3.1141551926400997
0.0 3.1141551926400997
0.0 3.1141551926400997
ITEM: ATOMS id type x y z
1 1 0.0 0.0 0.0
2 1 1.5570775963200498 1.5570775963200498 1.5570775963200498
ITEM: TIMESTEP energy, energy_weight, force_weight, nsims
30 -3257.8933348806822324 1 1 99
ITEM: NUMBER OF ATOMS
2
ITEM: BOX BOUNDS pp pp pp
0.0 3.1245799844454001
0.0 3.1245799844454001
0.0 3.1245799844454001
ITEM: ATOMS id type x y z
1 1 0.0 0.0 0.0
2 1 1.5622899922227 1.5622899922227 1.5622899922227
ITEM: TIMESTEP energy, energy_weight, force_weight, nsims
31 -3257.9232012312286316 1 1 99
ITEM: NUMBER OF ATOMS
2
ITEM: BOX BOUNDS pp pp pp
0.0 3.1349518585257998
0.0 3.1349518585257998
0.0 3.1349518585257998
ITEM: ATOMS id type x y z
1 1 0.0 0.0 0.0
2 1 1.5674759292629 1.5674759292629 1.5674759292629
ITEM: TIMESTEP energy, energy_weight, force_weight, nsims
32 -3257.9502978881409944 1 1 99
ITEM: NUMBER OF ATOMS
2
ITEM: BOX BOUNDS pp pp pp
0.0 3.1452708148812998
0.0 3.1452708148812998
0.0 3.1452708148812998
ITEM: ATOMS id type x y z
1 1 0.0 0.0 0.0
2 1 1.57263540744065 1.57263540744065 1.57263540744065
ITEM: TIMESTEP energy, energy_weight, force_weight, nsims
33 -3254.6886666914947456 1 1 99
ITEM: NUMBER OF ATOMS
2
ITEM: BOX BOUNDS pp pp pp
0.0 2.7604002016835998
0.0 2.7604002016835998
0.0 2.7604002016835998
ITEM: ATOMS id type x y z
1 1 0.0 0.0 0.0
2 1 1.3802001008417999 1.3802001008417999 1.3802001008417999
ITEM: TIMESTEP energy, energy_weight, force_weight, nsims
34 -3257.9747004985993044 1 1 99
ITEM: NUMBER OF ATOMS
2
ITEM: BOX BOUNDS pp pp pp
0.0 3.1555897712367997
0.0 3.1555897712367997
0.0 3.1555897712367997
ITEM: ATOMS id type x y z
1 1 0.0 0.0 0.0
2 1 1.5777948856184002 1.5777948856184002 1.5777948856184002
ITEM: TIMESTEP energy, energy_weight, force_weight, nsims
35 -3257.9964923289262516 1 1 99
ITEM: NUMBER OF ATOMS
2
ITEM: BOX BOUNDS pp pp pp
0.0 3.1658558098673995
0.0 3.1658558098673995
0.0 3.1658558098673995
ITEM: ATOMS id type x y z
1 1 0.0 0.0 0.0
2 1 1.5829279049336996 1.5829279049336996 1.5829279049336996
ITEM: TIMESTEP energy, energy_weight, force_weight, nsims
36 -3258.0157460330683534 1 1 99
ITEM: NUMBER OF ATOMS
2
ITEM: BOX BOUNDS pp pp pp
0.0 3.1761218484979996
0.0 3.1761218484979996
0.0 3.1761218484979996
ITEM: ATOMS id type x y z
1 1 0.0 0.0 0.0
2 1 1.5880609242489998 1.5880609242489998 1.5880609242489998
ITEM: TIMESTEP energy, energy_weight, force_weight, nsims
37 -3258.0325391629921796 1 1 99
ITEM: NUMBER OF ATOMS
2
ITEM: BOX BOUNDS pp pp pp
0.0 3.1863349694037
0.0 3.1863349694037
0.0 3.1863349694037
ITEM: ATOMS id type x y z
1 1 0.0 0.0 0.0
2 1 1.59316748470185 1.59316748470185 1.59316748470185
ITEM: TIMESTEP energy, energy_weight, force_weight, nsims
38 -3258.0469417875788168 1 1 99
ITEM: NUMBER OF ATOMS
2
ITEM: BOX BOUNDS pp pp pp
0.0 3.1964951725844997
0.0 3.1964951725844997
0.0 3.1964951725844997
ITEM: ATOMS id type x y z
1 1 0.0 0.0 0.0
2 1 1.5982475862922498 1.5982475862922498 1.5982475862922498
ITEM: TIMESTEP energy, energy_weight, force_weight, nsims
39 -3258.0590272410549914 1 1 99
ITEM: NUMBER OF ATOMS
2
ITEM: BOX BOUNDS pp pp pp
0.0 3.2066024580403996
0.0 3.2066024580403996
0.0 3.2066024580403996
ITEM: ATOMS id type x y z
1 1 0.0 0.0 0.0
2 1 1.6033012290201998 1.6033012290201998 1.6033012290201998
ITEM: TIMESTEP energy, energy_weight, force_weight, nsims
40 -3258.0688653201909802 1 1 99
ITEM: NUMBER OF ATOMS
2
ITEM: BOX BOUNDS pp pp pp
0.0 3.2167626612211997
0.0 3.2167626612211997
0.0 3.2167626612211997
ITEM: ATOMS id type x y z
1 1 0.0 0.0 0.0
2 1 1.6083813306105998 1.6083813306105998 1.6083813306105998
ITEM: TIMESTEP energy, energy_weight, force_weight, nsims
41 -3258.0765207876820568 1 1 99
ITEM: NUMBER OF ATOMS
2
ITEM: BOX BOUNDS pp pp pp
0.0 3.2268170289521998
0.0 3.2268170289521998
0.0 3.2268170289521998
ITEM: ATOMS id type x y z
1 1 0.0 0.0 0.0
2 1 1.6134085144761 1.6134085144761 1.6134085144761
ITEM: TIMESTEP energy, energy_weight, force_weight, nsims
42 -3258.0820615355110022 1 1 99
ITEM: NUMBER OF ATOMS
2
ITEM: BOX BOUNDS pp pp pp
0.0 3.2368713966831995
0.0 3.2368713966831995
0.0 3.2368713966831995
ITEM: ATOMS id type x y z
1 1 0.0 0.0 0.0
2 1 1.6184356983415996 1.6184356983415996 1.6184356983415996
ITEM: TIMESTEP energy, energy_weight, force_weight, nsims
43 -3258.0855504215874134 1 1 99
ITEM: NUMBER OF ATOMS
2
ITEM: BOX BOUNDS pp pp pp
0.0 3.2468728466892998
0.0 3.2468728466892998
0.0 3.2468728466892998
ITEM: ATOMS id type x y z
1 1 0.0 0.0 0.0
2 1 1.6234364233446502 1.6234364233446502 1.6234364233446502
ITEM: TIMESTEP energy, energy_weight, force_weight, nsims
44 -3254.87166565743928 1 1 99
ITEM: NUMBER OF ATOMS
2
ITEM: BOX BOUNDS pp pp pp
0.0 2.7721479366114
0.0 2.7721479366114
0.0 2.7721479366114
ITEM: ATOMS id type x y z
1 1 0.0 0.0 0.0
2 1 1.3860739683057 1.3860739683057 1.3860739683057
ITEM: TIMESTEP energy, energy_weight, force_weight, nsims
45 -3258.0870532970538988 1 1 99
ITEM: NUMBER OF ATOMS
2
ITEM: BOX BOUNDS pp pp pp
0.0 3.2568742966954001
0.0 3.2568742966954001
0.0 3.2568742966954001
ITEM: ATOMS id type x y z
1 1 0.0 0.0 0.0
2 1 1.6284371483477 1.6284371483477 1.6284371483477
ITEM: TIMESTEP energy, energy_weight, force_weight, nsims
46 -3258.0866256727927066 1 1 99
ITEM: NUMBER OF ATOMS
2
ITEM: BOX BOUNDS pp pp pp
0.0 3.2668228289765997
0.0 3.2668228289765997
0.0 3.2668228289765997
ITEM: ATOMS id type x y z
1 1 0.0 0.0 0.0
2 1 1.6334114144883002 1.6334114144883002 1.6334114144883002
ITEM: TIMESTEP energy, energy_weight, force_weight, nsims
47 -3258.0843308148801044 1 1 99
ITEM: NUMBER OF ATOMS
2
ITEM: BOX BOUNDS pp pp pp
0.0 3.2767713612577998
0.0 3.2767713612577998
0.0 3.2767713612577998
ITEM: ATOMS id type x y z
1 1 0.0 0.0 0.0
2 1 1.6383856806289002 1.6383856806289002 1.6383856806289002
ITEM: TIMESTEP energy, energy_weight, force_weight, nsims
48 -3258.0802268192628616 1 1 99
ITEM: NUMBER OF ATOMS
2
ITEM: BOX BOUNDS pp pp pp
0.0 3.2866140580891998
0.0 3.2866140580891998
0.0 3.2866140580891998
ITEM: ATOMS id type x y z
1 1 0.0 0.0 0.0
2 1 1.6433070290446 1.6433070290446 1.6433070290446
ITEM: TIMESTEP energy, energy_weight, force_weight, nsims
49 -3258.0743685165421084 1 1 99
ITEM: NUMBER OF ATOMS
2
ITEM: BOX BOUNDS pp pp pp
0.0 3.2965096726454997
0.0 3.2965096726454997
0.0 3.2965096726454997
ITEM: ATOMS id type x y z
1 1 0.0 0.0 0.0
2 1 1.6482548363227498 1.6482548363227498 1.6482548363227498
ITEM: TIMESTEP energy, energy_weight, force_weight, nsims
50 -3258.0668112815419590 1 1 99
ITEM: NUMBER OF ATOMS
2
ITEM: BOX BOUNDS pp pp pp
0.0 3.3063523694768997
0.0 3.3063523694768997
0.0 3.3063523694768997
ITEM: ATOMS id type x y z
1 1 0.0 0.0 0.0
2 1 1.6531761847384498 1.6531761847384498 1.6531761847384498
ITEM: TIMESTEP energy, energy_weight, force_weight, nsims
51 -3258.0576091285265648 1 1 99
ITEM: NUMBER OF ATOMS
2
ITEM: BOX BOUNDS pp pp pp
0.0 3.3161421485834
0.0 3.3161421485834
0.0 3.3161421485834
ITEM: ATOMS id type x y z
1 1 0.0 0.0 0.0
2 1 1.6580710742917 1.6580710742917 1.6580710742917
ITEM: TIMESTEP energy, energy_weight, force_weight, nsims
52 -3258.0468140309189948 1 1 99
ITEM: NUMBER OF ATOMS
2
ITEM: BOX BOUNDS pp pp pp
0.0 3.3259319276898998
0.0 3.3259319276898998
0.0 3.3259319276898998
ITEM: ATOMS id type x y z
1 1 0.0 0.0 0.0
2 1 1.6629659638449502 1.6629659638449502 1.6629659638449502
ITEM: TIMESTEP energy, energy_weight, force_weight, nsims
53 -3258.0344752410196634 1 1 99
ITEM: NUMBER OF ATOMS
2
ITEM: BOX BOUNDS pp pp pp
0.0 3.3356687890714998
0.0 3.3356687890714998
0.0 3.3356687890714998
ITEM: ATOMS id type x y z
1 1 0.0 0.0 0.0
2 1 1.6678343945357502 1.6678343945357502 1.6678343945357502
ITEM: TIMESTEP energy, energy_weight, force_weight, nsims
54 -3258.020642283242978 1 1 99
ITEM: NUMBER OF ATOMS
2
ITEM: BOX BOUNDS pp pp pp
0.0 3.3454056504530998
0.0 3.3454056504530998
0.0 3.3454056504530998
ITEM: ATOMS id type x y z
1 1 0.0 0.0 0.0
2 1 1.67270282522655 1.67270282522655 1.67270282522655
ITEM: TIMESTEP energy, energy_weight, force_weight, nsims
55 -3255.0475857615633688 1 1 99
ITEM: NUMBER OF ATOMS
2
ITEM: BOX BOUNDS pp pp pp
0.0 2.7838427538142998
0.0 2.7838427538142998
0.0 2.7838427538142998
ITEM: ATOMS id type x y z
1 1 0.0 0.0 0.0
2 1 1.3919213769071499 1.3919213769071499 1.3919213769071499
ITEM: TIMESTEP energy, energy_weight, force_weight, nsims
56 -3258.0053661786191696 1 1 99
ITEM: NUMBER OF ATOMS
2
ITEM: BOX BOUNDS pp pp pp
0.0 3.3550895941098
0.0 3.3550895941098
0.0 3.3550895941098
ITEM: ATOMS id type x y z
1 1 0.0 0.0 0.0
2 1 1.6775447970549 1.6775447970549 1.6775447970549
ITEM: TIMESTEP energy, energy_weight, force_weight, nsims
57 -3257.9886904650929864 1 1 99
ITEM: NUMBER OF ATOMS
2
ITEM: BOX BOUNDS pp pp pp
0.0 3.3647735377664998
0.0 3.3647735377664998
0.0 3.3647735377664998
ITEM: ATOMS id type x y z
1 1 0.0 0.0 0.0
2 1 1.68238676888325 1.68238676888325 1.68238676888325
ITEM: TIMESTEP energy, energy_weight, force_weight, nsims
58 -3257.9706634425742776 1 1 99
ITEM: NUMBER OF ATOMS
2
ITEM: BOX BOUNDS pp pp pp
0.0 3.3744045636982994
0.0 3.3744045636982994
0.0 3.3744045636982994
ITEM: ATOMS id type x y z
1 1 0.0 0.0 0.0
2 1 1.6872022818491498 1.6872022818491498 1.6872022818491498
ITEM: TIMESTEP energy, energy_weight, force_weight, nsims
59 -3257.951327560558184 1 1 99
ITEM: NUMBER OF ATOMS
2
ITEM: BOX BOUNDS pp pp pp
0.0 3.3839826719052
0.0 3.3839826719052
0.0 3.3839826719052
ITEM: ATOMS id type x y z
1 1 0.0 0.0 0.0
2 1 1.6919913359526 1.6919913359526 1.6919913359526
ITEM: TIMESTEP energy, energy_weight, force_weight, nsims
60 -3257.9307251324889876 1 1 99
ITEM: NUMBER OF ATOMS
2
ITEM: BOX BOUNDS pp pp pp
0.0 3.3935607801120997
0.0 3.3935607801120997
0.0 3.3935607801120997
ITEM: ATOMS id type x y z
1 1 0.0 0.0 0.0
2 1 1.6967803900560502 1.6967803900560502 1.6967803900560502
ITEM: TIMESTEP energy, energy_weight, force_weight, nsims
61 -3257.9088987439176888 1 1 99
ITEM: NUMBER OF ATOMS
2
ITEM: BOX BOUNDS pp pp pp
0.0 3.4031388883189999
0.0 3.4031388883189999
0.0 3.4031388883189999
ITEM: ATOMS id type x y z
1 1 0.0 0.0 0.0
2 1 1.7015694441595 1.7015694441595 1.7015694441595
ITEM: TIMESTEP energy, energy_weight, force_weight, nsims
62 -3257.8858911164538768 1 1 99
ITEM: NUMBER OF ATOMS
2
ITEM: BOX BOUNDS pp pp pp
0.0 3.4126640788009999
0.0 3.4126640788009999
0.0 3.4126640788009999
ITEM: ATOMS id type x y z
1 1 0.0 0.0 0.0
2 1 1.7063320394005 1.7063320394005 1.7063320394005
ITEM: TIMESTEP energy, energy_weight, force_weight, nsims
63 -3257.8617400736879972 1 1 99
ITEM: NUMBER OF ATOMS
2
ITEM: BOX BOUNDS pp pp pp
0.0 3.4221363515580996
0.0 3.4221363515580996
0.0 3.4221363515580996
ITEM: ATOMS id type x y z
1 1 0.0 0.0 0.0
2 1 1.7110681757790498 1.7110681757790498 1.7110681757790498
ITEM: TIMESTEP energy, energy_weight, force_weight, nsims
64 -3257.8364852079403136 1 1 99
ITEM: NUMBER OF ATOMS
2
ITEM: BOX BOUNDS pp pp pp
0.0 3.4316615420400996
0.0 3.4316615420400996
0.0 3.4316615420400996
ITEM: ATOMS id type x y z
1 1 0.0 0.0 0.0
2 1 1.7158307710200498 1.7158307710200498 1.7158307710200498
ITEM: TIMESTEP energy, energy_weight, force_weight, nsims
65 -3257.8101624380151408 1 1 99
ITEM: NUMBER OF ATOMS
2
ITEM: BOX BOUNDS pp pp pp
0.0 3.4410808970722999
0.0 3.4410808970722999
0.0 3.4410808970722999
ITEM: ATOMS id type x y z
1 1 0.0 0.0 0.0
2 1 1.72054044853615 1.72054044853615 1.72054044853615
ITEM: TIMESTEP energy, energy_weight, force_weight, nsims
66 -3255.2166368023422364 1 1 99
ITEM: NUMBER OF ATOMS
2
ITEM: BOX BOUNDS pp pp pp
0.0 2.7954846532923
0.0 2.7954846532923
0.0 2.7954846532923
ITEM: ATOMS id type x y z
1 1 0.0 0.0 0.0
2 1 1.39774232664615 1.39774232664615 1.39774232664615
ITEM: TIMESTEP energy, energy_weight, force_weight, nsims
67 -3257.7828120365129508 1 1 99
ITEM: NUMBER OF ATOMS
2
ITEM: BOX BOUNDS pp pp pp
0.0 3.4505002521044998
0.0 3.4505002521044998
0.0 3.4505002521044998
ITEM: ATOMS id type x y z
1 1 0.0 0.0 0.0
2 1 1.72525012605225 1.72525012605225 1.72525012605225
ITEM: TIMESTEP energy, energy_weight, force_weight, nsims
68 -3257.754468153509606 1 1 99
ITEM: NUMBER OF ATOMS
2
ITEM: BOX BOUNDS pp pp pp
0.0 3.4599196071366994
0.0 3.4599196071366994
0.0 3.4599196071366994
ITEM: ATOMS id type x y z
1 1 0.0 0.0 0.0
2 1 1.7299598035683498 1.7299598035683498 1.7299598035683498
ITEM: TIMESTEP energy, energy_weight, force_weight, nsims
69 -3257.725162898240342 1 1 99
ITEM: NUMBER OF ATOMS
2
ITEM: BOX BOUNDS pp pp pp
0.0 3.469286044444
0.0 3.469286044444
0.0 3.469286044444
ITEM: ATOMS id type x y z
1 1 0.0 0.0 0.0
2 1 1.734643022222 1.734643022222 1.734643022222
ITEM: TIMESTEP energy, energy_weight, force_weight, nsims
70 -3257.6949354548564772 1 1 99
ITEM: NUMBER OF ATOMS
2
ITEM: BOX BOUNDS pp pp pp
0.0 3.4786524817512996
0.0 3.4786524817512996
0.0 3.4786524817512996
ITEM: ATOMS id type x y z
1 1 0.0 0.0 0.0
2 1 1.7393262408756498 1.7393262408756498 1.7393262408756498
ITEM: TIMESTEP energy, energy_weight, force_weight, nsims
71 -3257.6638131706299648 1 1 99
ITEM: NUMBER OF ATOMS
2
ITEM: BOX BOUNDS pp pp pp
0.0 3.4879660013337
0.0 3.4879660013337
0.0 3.4879660013337
ITEM: ATOMS id type x y z
1 1 0.0 0.0 0.0
2 1 1.74398300066685 1.74398300066685 1.74398300066685
ITEM: TIMESTEP energy, energy_weight, force_weight, nsims
72 -3257.6318334609832164 1 1 99
ITEM: NUMBER OF ATOMS
2
ITEM: BOX BOUNDS pp pp pp
0.0 3.4972266031911996
0.0 3.4972266031911996
0.0 3.4972266031911996
ITEM: ATOMS id type x y z
1 1 0.0 0.0 0.0
2 1 1.7486133015955998 1.7486133015955998 1.7486133015955998
ITEM: TIMESTEP energy, energy_weight, force_weight, nsims
73 -3257.5990228568516616 1 1 99
ITEM: NUMBER OF ATOMS
2
ITEM: BOX BOUNDS pp pp pp
0.0 3.5065401227736
0.0 3.5065401227736
0.0 3.5065401227736
ITEM: ATOMS id type x y z
1 1 0.0 0.0 0.0
2 1 1.7532700613868 1.7532700613868 1.7532700613868
ITEM: TIMESTEP energy, energy_weight, force_weight, nsims
74 -3257.5654171409855736 1 1 99
ITEM: NUMBER OF ATOMS
2
ITEM: BOX BOUNDS pp pp pp
0.0 3.5157478069061994
0.0 3.5157478069061994
0.0 3.5157478069061994
ITEM: ATOMS id type x y z
1 1 0.0 0.0 0.0
2 1 1.7578739034530998 1.7578739034530998 1.7578739034530998
ITEM: TIMESTEP energy, energy_weight, force_weight, nsims
75 -3257.5310399871409572 1 1 99
ITEM: NUMBER OF ATOMS
2
ITEM: BOX BOUNDS pp pp pp
0.0 3.5250084087636996
0.0 3.5250084087636996
0.0 3.5250084087636996
ITEM: ATOMS id type x y z
1 1 0.0 0.0 0.0
2 1 1.7625042043818496 1.7625042043818496 1.7625042043818496
ITEM: TIMESTEP energy, energy_weight, force_weight, nsims
76 -3257.4959248651161944 1 1 99
ITEM: NUMBER OF ATOMS
2
ITEM: BOX BOUNDS pp pp pp
0.0 3.5341631751714
0.0 3.5341631751714
0.0 3.5341631751714
ITEM: ATOMS id type x y z
1 1 0.0 0.0 0.0
2 1 1.7670815875857 1.7670815875857 1.7670815875857
ITEM: TIMESTEP energy, energy_weight, force_weight, nsims
77 -3255.379031707544982 1 1 99
ITEM: NUMBER OF ATOMS
2
ITEM: BOX BOUNDS pp pp pp
0.0 2.8070736350453998
0.0 2.8070736350453998
0.0 2.8070736350453998
ITEM: ATOMS id type x y z
1 1 0.0 0.0 0.0
2 1 1.4035368175227001 1.4035368175227001 1.4035368175227001
ITEM: TIMESTEP energy, energy_weight, force_weight, nsims
78 -3257.4600973534516016 1 1 99
ITEM: NUMBER OF ATOMS
2
ITEM: BOX BOUNDS pp pp pp
0.0 3.5433708593039994
0.0 3.5433708593039994
0.0 3.5433708593039994
ITEM: ATOMS id type x y z
1 1 0.0 0.0 0.0
2 1 1.7716854296519998 1.7716854296519998 1.7716854296519998
ITEM: TIMESTEP energy, energy_weight, force_weight, nsims
79 -3257.4235868402633968 1 1 99
ITEM: NUMBER OF ATOMS
2
ITEM: BOX BOUNDS pp pp pp
0.0 3.5525256257117
0.0 3.5525256257117
0.0 3.5525256257117
ITEM: ATOMS id type x y z
1 1 0.0 0.0 0.0
2 1 1.77626281285585 1.77626281285585 1.77626281285585
ITEM: TIMESTEP energy, energy_weight, force_weight, nsims
80 -3257.386417543531934 1 1 99
ITEM: NUMBER OF ATOMS
2
ITEM: BOX BOUNDS pp pp pp
0.0 3.5616274743944998
0.0 3.5616274743944998
0.0 3.5616274743944998
ITEM: ATOMS id type x y z
1 1 0.0 0.0 0.0
2 1 1.78081373719725 1.78081373719725 1.78081373719725
ITEM: TIMESTEP energy, energy_weight, force_weight, nsims
81 -3257.348616266305726 1 1 99
ITEM: NUMBER OF ATOMS
2
ITEM: BOX BOUNDS pp pp pp
0.0 3.5707293230772996
0.0 3.5707293230772996
0.0 3.5707293230772996
ITEM: ATOMS id type x y z
1 1 0.0 0.0 0.0
2 1 1.7853646615386498 1.7853646615386498 1.7853646615386498
ITEM: TIMESTEP energy, energy_weight, force_weight, nsims
82 -3257.3102096755769708 1 1 99
ITEM: NUMBER OF ATOMS
2
ITEM: BOX BOUNDS pp pp pp
0.0 3.5798311717601
0.0 3.5798311717601
0.0 3.5798311717601
ITEM: ATOMS id type x y z
1 1 0.0 0.0 0.0
2 1 1.78991558588005 1.78991558588005 1.78991558588005
ITEM: TIMESTEP energy, energy_weight, force_weight, nsims
83 -3257.2712207648232836 1 1 99
ITEM: NUMBER OF ATOMS
2
ITEM: BOX BOUNDS pp pp pp
0.0 3.588880102718
0.0 3.588880102718
0.0 3.588880102718
ITEM: ATOMS id type x y z
1 1 0.0 0.0 0.0
2 1 1.794440051359 1.794440051359 1.794440051359
ITEM: TIMESTEP energy, energy_weight, force_weight, nsims
84 -3257.2316729356894032 1 1 99
ITEM: NUMBER OF ATOMS
2
ITEM: BOX BOUNDS pp pp pp
0.0 3.5979290336759
0.0 3.5979290336759
0.0 3.5979290336759
ITEM: ATOMS id type x y z
1 1 0.0 0.0 0.0
2 1 1.79896451683795 1.79896451683795 1.79896451683795
ITEM: TIMESTEP energy, energy_weight, force_weight, nsims
85 -3257.1915905422151812 1 1 99
ITEM: NUMBER OF ATOMS
2
ITEM: BOX BOUNDS pp pp pp
0.0 3.6069250469088994
0.0 3.6069250469088994
0.0 3.6069250469088994
ITEM: ATOMS id type x y z
1 1 0.0 0.0 0.0
2 1 1.8034625234544498 1.8034625234544498 1.8034625234544498
ITEM: TIMESTEP energy, energy_weight, force_weight, nsims
86 -3257.1509944009799256 1 1 99
ITEM: NUMBER OF ATOMS
2
ITEM: BOX BOUNDS pp pp pp
0.0 3.6159210601418996
0.0 3.6159210601418996
0.0 3.6159210601418996
ITEM: ATOMS id type x y z
1 1 0.0 0.0 0.0
2 1 1.8079605300709496 1.8079605300709496 1.8079605300709496
ITEM: TIMESTEP energy, energy_weight, force_weight, nsims
87 -3257.1099090020793484 1 1 99
ITEM: NUMBER OF ATOMS
2
ITEM: BOX BOUNDS pp pp pp
0.0 3.6249170733749
0.0 3.6249170733749
0.0 3.6249170733749
ITEM: ATOMS id type x y z
1 1 0.0 0.0 0.0
2 1 1.81245853668745 1.81245853668745 1.81245853668745
ITEM: TIMESTEP energy, energy_weight, force_weight, nsims
88 -3255.5349621801856304 1 1 99
ITEM: NUMBER OF ATOMS
2
ITEM: BOX BOUNDS pp pp pp
0.0 2.8186096990735994
0.0 2.8186096990735994
0.0 2.8186096990735994
ITEM: ATOMS id type x y z
1 1 0.0 0.0 0.0
2 1 1.4093048495367997 1.4093048495367997 1.4093048495367997
ITEM: TIMESTEP energy, energy_weight, force_weight, nsims
89 -3257.0683521688588372 1 1 99
ITEM: NUMBER OF ATOMS
2
ITEM: BOX BOUNDS pp pp pp
0.0 3.633860168883
0.0 3.633860168883
0.0 3.633860168883
ITEM: ATOMS id type x y z
1 1 0.0 0.0 0.0
2 1 1.8169300844415 1.8169300844415 1.8169300844415
ITEM: TIMESTEP energy, energy_weight, force_weight, nsims
90 -3257.0263473029649504 1 1 99
ITEM: NUMBER OF ATOMS
2
ITEM: BOX BOUNDS pp pp pp
0.0 3.6427503466661998
0.0 3.6427503466661998
0.0 3.6427503466661998
ITEM: ATOMS id type x y z
1 1 0.0 0.0 0.0
2 1 1.8213751733331002 1.8213751733331002 1.8213751733331002
ITEM: TIMESTEP energy, energy_weight, force_weight, nsims
91 -3256.9839137243607184 1 1 99
ITEM: NUMBER OF ATOMS
2
ITEM: BOX BOUNDS pp pp pp
0.0 3.6516934421742998
0.0 3.6516934421742998
0.0 3.6516934421742998
ITEM: ATOMS id type x y z
1 1 0.0 0.0 0.0
2 1 1.8258467210871496 1.8258467210871496 1.8258467210871496
ITEM: TIMESTEP energy, energy_weight, force_weight, nsims
92 -3256.9410706169537664 1 1 99
ITEM: NUMBER OF ATOMS
2
ITEM: BOX BOUNDS pp pp pp
0.0 3.6605307022325998
0.0 3.6605307022325998
0.0 3.6605307022325998
ITEM: ATOMS id type x y z
1 1 0.0 0.0 0.0
2 1 1.8302653511163002 1.8302653511163002 1.8302653511163002
ITEM: TIMESTEP energy, energy_weight, force_weight, nsims
93 -3256.8978385252121370 1 1 99
ITEM: NUMBER OF ATOMS
2
ITEM: BOX BOUNDS pp pp pp
0.0 3.6694208800157996
0.0 3.6694208800157996
0.0 3.6694208800157996
ITEM: ATOMS id type x y z
1 1 0.0 0.0 0.0
2 1 1.8347104400078996 1.8347104400078996 1.8347104400078996
ITEM: TIMESTEP energy, energy_weight, force_weight, nsims
94 -3256.854233503753676 1 1 99
ITEM: NUMBER OF ATOMS
2
ITEM: BOX BOUNDS pp pp pp
0.0 3.6782581400740996
0.0 3.6782581400740996
0.0 3.6782581400740996
ITEM: ATOMS id type x y z
1 1 0.0 0.0 0.0
2 1 1.8391290700370496 1.8391290700370496 1.8391290700370496
ITEM: TIMESTEP energy, energy_weight, force_weight, nsims
95 -3256.8102741922607494 1 1 99
ITEM: NUMBER OF ATOMS
2
ITEM: BOX BOUNDS pp pp pp
0.0 3.6870954001324
0.0 3.6870954001324
0.0 3.6870954001324
ITEM: ATOMS id type x y z
1 1 0.0 0.0 0.0
2 1 1.8435477000662 1.8435477000662 1.8435477000662
ITEM: TIMESTEP energy, energy_weight, force_weight, nsims
96 -3256.7659780059129844 1 1 99
ITEM: NUMBER OF ATOMS
2
ITEM: BOX BOUNDS pp pp pp
0.0 3.6958797424658002
0.0 3.6958797424658002
0.0 3.6958797424658002
ITEM: ATOMS id type x y z
1 1 0.0 0.0 0.0
2 1 1.8479398712329 1.8479398712329 1.8479398712329
ITEM: TIMESTEP energy, energy_weight, force_weight, nsims
97 -3256.7213629041111744 1 1 99
ITEM: NUMBER OF ATOMS
2
ITEM: BOX BOUNDS pp pp pp
0.0 3.7046640847991998
0.0 3.7046640847991998