ITEM: TIMESTEP energy, energy_weight, force_weight, nsims
0 -3258.0462966096438322 1 1 990
ITEM: NUMBER OF ATOMS
2
ITEM: BOX BOUNDS pp pp pp
0.0 3.0552048471014999
0.0 3.2568605878295873
0.0 3.2568605878295873
ITEM: ATOMS id type x y z
1 1 0.0 0.0 0.0
2 1 1.52760242355075 1.628430293914794 1.628430293914794
ITEM: TIMESTEP energy, energy_weight, force_weight, nsims
1 -3258.0480305083356142 1 1 990
ITEM: NUMBER OF ATOMS
2
ITEM: BOX BOUNDS pp pp pp
0.0 3.0594382650935001
0.0 3.2568424002721286
0.0 3.2568424002721286
ITEM: ATOMS id type x y z
1 1 0.0 0.0 0.0
2 1 1.5297191325467504 1.6284212001360646 1.6284212001360646
ITEM: TIMESTEP energy, energy_weight, force_weight, nsims
2 -3258.0497186921847970 1 1 990
ITEM: NUMBER OF ATOMS
2
ITEM: BOX BOUNDS pp pp pp
0.0 3.0637246008103998
0.0 3.2568893731668944
0.0 3.2568893731668944
ITEM: ATOMS id type x y z
1 1 0.0 0.0 0.0
2 1 1.5318623004052002 1.6284446865834472 1.6284446865834472
ITEM: TIMESTEP energy, energy_weight, force_weight, nsims
3 -3258.0513617054148198 1 1 990
ITEM: NUMBER OF ATOMS
2
ITEM: BOX BOUNDS pp pp pp
0.0 3.0679580188023996
0.0 3.2568859415582705
0.0 3.2568859415582705
ITEM: ATOMS id type x y z
1 1 0.0 0.0 0.0
2 1 1.5339790094011998 1.6284429707791352 1.6284429707791352
ITEM: TIMESTEP energy, energy_weight, force_weight, nsims
4 -3258.0529595480261378 1 1 990
ITEM: NUMBER OF ATOMS
2
ITEM: BOX BOUNDS pp pp pp
0.0 3.0721914367943999
0.0 3.2568885137830424
0.0 3.2568885137830424
ITEM: ATOMS id type x y z
1 1 0.0 0.0 0.0
2 1 1.5360957183972 1.6284442568915212 1.6284442568915212
ITEM: TIMESTEP energy, energy_weight, force_weight, nsims
5 -3258.0545135805796236 1 1 990
ITEM: NUMBER OF ATOMS
2
ITEM: BOX BOUNDS pp pp pp
0.0 3.0763719370614999
0.0 3.2568442203772761
0.0 3.2568442203772761
ITEM: ATOMS id type x y z
1 1 0.0 0.0 0.0
2 1 1.53818596853075 1.628422110188638 1.628422110188638
ITEM: TIMESTEP energy, energy_weight, force_weight, nsims
6 -3258.0560239391302276 1 1 990
ITEM: NUMBER OF ATOMS
2
ITEM: BOX BOUNDS pp pp pp
0.0 3.0806053550534998
0.0 3.256859109837531
0.0 3.256859109837531
ITEM: ATOMS id type x y z
1 1 0.0 0.0 0.0
2 1 1.5403026775267502 1.6284295549187656 1.6284295549187656
ITEM: TIMESTEP energy, energy_weight, force_weight, nsims
7 -3258.0574911679045726 1 1 990
ITEM: NUMBER OF ATOMS
2
ITEM: BOX BOUNDS pp pp pp
0.0 3.0848387730455
0.0 3.2568802314182479
0.0 3.2568802314182479
ITEM: ATOMS id type x y z
1 1 0.0 0.0 0.0
2 1 1.54241938652275 1.628440115709124 1.628440115709124
ITEM: TIMESTEP energy, energy_weight, force_weight, nsims
8 -3258.0589174437977818 1 1 990
ITEM: NUMBER OF ATOMS
2
ITEM: BOX BOUNDS pp pp pp
0.0 3.0890192733125996
0.0 3.2568518684702199
0.0 3.2568518684702199
ITEM: ATOMS id type x y z
1 1 0.0 0.0 0.0
2 1 1.5445096366562998 1.62842593423511 1.62842593423511
ITEM: TIMESTEP energy, energy_weight, force_weight, nsims
9 -3258.0603012701944862 1 1 990
ITEM: NUMBER OF ATOMS
2
ITEM: BOX BOUNDS pp pp pp
0.0 3.0932526913045995
0.0 3.2568826654219216
0.0 3.2568826654219216
ITEM: ATOMS id type x y z
1 1 0.0 0.0 0.0
2 1 1.5466263456522996 1.6284413327109608 1.6284413327109608
ITEM: TIMESTEP energy, energy_weight, force_weight, nsims
10 -3258.0616448239907186 1 1 990
ITEM: NUMBER OF ATOMS
2
ITEM: BOX BOUNDS pp pp pp
0.0 3.0974331915716999
0.0 3.2568673702414706
0.0 3.2568673702414706
ITEM: ATOMS id type x y z
1 1 0.0 0.0 0.0
2 1 1.54871659578585 1.6284336851207356 1.6284336851207356
ITEM: TIMESTEP energy, energy_weight, force_weight, nsims
11 -3258.062946880682830 1 1 990
ITEM: NUMBER OF ATOMS
2
ITEM: BOX BOUNDS pp pp pp
0.0 3.1016136918388
0.0 3.2568587619564071
0.0 3.2568587619564071
ITEM: ATOMS id type x y z
1 1 0.0 0.0 0.0
2 1 1.5508068459194 1.6284293809782036 1.6284293809782036
ITEM: TIMESTEP energy, energy_weight, force_weight, nsims
12 -3258.0642098892790272 1 1 990
ITEM: NUMBER OF ATOMS
2
ITEM: BOX BOUNDS pp pp pp
0.0 3.1057941921059
0.0 3.2568538100215467
0.0 3.2568538100215467
ITEM: ATOMS id type x y z
1 1 0.0 0.0 0.0
2 1 1.55289709605295 1.6284269050107734 1.6284269050107734
ITEM: TIMESTEP energy, energy_weight, force_weight, nsims
13 -3258.0654338497811296 1 1 990
ITEM: NUMBER OF ATOMS
2
ITEM: BOX BOUNDS pp pp pp
0.0 3.1099746923729996
0.0 3.2568556871190837
0.0 3.2568556871190837
ITEM: ATOMS id type x y z
1 1 0.0 0.0 0.0
2 1 1.5549873461864998 1.6284278435595418 1.6284278435595418
ITEM: TIMESTEP energy, energy_weight, force_weight, nsims
14 -3258.0666190342999470 1 1 990
ITEM: NUMBER OF ATOMS
2
ITEM: BOX BOUNDS pp pp pp
0.0 3.1141551926400997
0.0 3.2568613543428322
0.0 3.2568613543428322
ITEM: ATOMS id type x y z
1 1 0.0 0.0 0.0
2 1 1.5570775963200498 1.6284306771714162 1.6284306771714162
ITEM: TIMESTEP energy, energy_weight, force_weight, nsims
15 -3258.067767075508982 1 1 990
ITEM: NUMBER OF ATOMS
2
ITEM: BOX BOUNDS pp pp pp
0.0 3.1183356929071997
0.0 3.2568739927359878
0.0 3.2568739927359878
ITEM: ATOMS id type x y z
1 1 0.0 0.0 0.0
2 1 1.5591678464535998 1.6284369963679942 1.6284369963679942
ITEM: TIMESTEP energy, energy_weight, force_weight, nsims
16 -3258.0688764767901376 1 1 990
ITEM: NUMBER OF ATOMS
2
ITEM: BOX BOUNDS pp pp pp
0.0 3.1225161931742997
0.0 3.2568936775475557
0.0 3.2568936775475557
ITEM: ATOMS id type x y z
1 1 0.0 0.0 0.0
2 1 1.5612580965871502 1.6284468387737778 1.6284468387737778
ITEM: TIMESTEP energy, energy_weight, force_weight, nsims
17 -3258.0699494150421742 1 1 990
ITEM: NUMBER OF ATOMS
2
ITEM: BOX BOUNDS pp pp pp
0.0 3.1266437757165
0.0 3.2568622356875405
0.0 3.2568622356875405
ITEM: ATOMS id type x y z
1 1 0.0 0.0 0.0
2 1 1.56332188785825 1.6284311178437708 1.6284311178437708
ITEM: TIMESTEP energy, energy_weight, force_weight, nsims
18 -3258.0709852099844284 1 1 990
ITEM: NUMBER OF ATOMS
2
ITEM: BOX BOUNDS pp pp pp
0.0 3.1308242759836
0.0 3.2568931771046317
0.0 3.2568931771046317
ITEM: ATOMS id type x y z
1 1 0.0 0.0 0.0
2 1 1.5654121379918 1.6284465885523158 1.6284465885523158
ITEM: TIMESTEP energy, energy_weight, force_weight, nsims
19 -3258.0719845418966542 1 1 990
ITEM: NUMBER OF ATOMS
2
ITEM: BOX BOUNDS pp pp pp
0.0 3.1349518585257998
0.0 3.2568732712557269
0.0 3.2568732712557269
ITEM: ATOMS id type x y z
1 1 0.0 0.0 0.0
2 1 1.5674759292629 1.6284366356278634 1.6284366356278634
ITEM: TIMESTEP energy, energy_weight, force_weight, nsims
20 -3258.0729486352843196 1 1 990
ITEM: NUMBER OF ATOMS
2
ITEM: BOX BOUNDS pp pp pp
0.0 3.1390794410680001
0.0 3.2568608407763122
0.0 3.2568608407763122
ITEM: ATOMS id type x y z
1 1 0.0 0.0 0.0
2 1 1.569539720534 1.6284304203881562 1.6284304203881562
ITEM: TIMESTEP energy, energy_weight, force_weight, nsims
21 -3258.0738772180347950 1 1 990
ITEM: NUMBER OF ATOMS
2
ITEM: BOX BOUNDS pp pp pp
0.0 3.1432070236101999
0.0 3.2568528167558504
0.0 3.2568528167558504
ITEM: ATOMS id type x y z
1 1 0.0 0.0 0.0
2 1 1.5716035118051 1.6284264083779252 1.6284264083779252
ITEM: TIMESTEP energy, energy_weight, force_weight, nsims
22 -3258.0747716507089536 1 1 990
ITEM: NUMBER OF ATOMS
2
ITEM: BOX BOUNDS pp pp pp
0.0 3.1473346061524001
0.0 3.2568524084426853
0.0 3.2568524084426853
ITEM: ATOMS id type x y z
1 1 0.0 0.0 0.0
2 1 1.5736673030762004 1.6284262042213432 1.6284262042213432
ITEM: TIMESTEP energy, energy_weight, force_weight, nsims
23 -3258.0756307088022368 1 1 990
ITEM: NUMBER OF ATOMS
2
ITEM: BOX BOUNDS pp pp pp
0.0 3.1514621886945999
0.0 3.256856538671113
0.0 3.256856538671113
ITEM: ATOMS id type x y z
1 1 0.0 0.0 0.0
2 1 1.5757310943473 1.6284282693355566 1.6284282693355566
ITEM: TIMESTEP energy, energy_weight, force_weight, nsims
24 -3258.0764560249876922 1 1 990
ITEM: NUMBER OF ATOMS
2
ITEM: BOX BOUNDS pp pp pp
0.0 3.1555897712367997
0.0 3.2568652693548739
0.0 3.2568652693548739
ITEM: ATOMS id type x y z
1 1 0.0 0.0 0.0
2 1 1.5777948856184002 1.628432634677437 1.628432634677437
ITEM: TIMESTEP energy, energy_weight, force_weight, nsims
25 -3258.0772473271526906 1 1 990
ITEM: NUMBER OF ATOMS
2
ITEM: BOX BOUNDS pp pp pp
0.0 3.159717353779
0.0 3.2568786624077042
0.0 3.2568786624077042
ITEM: ATOMS id type x y z
1 1 0.0 0.0 0.0
2 1 1.5798586768895 1.6284393312038522 1.6284393312038522
ITEM: TIMESTEP energy, energy_weight, force_weight, nsims
26 -3258.0780063840270486 1 1 990
ITEM: NUMBER OF ATOMS
2
ITEM: BOX BOUNDS pp pp pp
0.0 3.1637920185962996
0.0 3.2568454694472538
0.0 3.2568454694472538
ITEM: ATOMS id type x y z
1 1 0.0 0.0 0.0
2 1 1.5818960092981498 1.6284227347236272 1.6284227347236272
ITEM: TIMESTEP energy, energy_weight, force_weight, nsims
27 -3258.078731835048984 1 1 990
ITEM: NUMBER OF ATOMS
2
ITEM: BOX BOUNDS pp pp pp
0.0 3.1679196011384998
0.0 3.2568716156188678
0.0 3.2568716156188678
ITEM: ATOMS id type x y z
1 1 0.0 0.0 0.0
2 1 1.58395980056925 1.6284358078094344 1.6284358078094344
ITEM: TIMESTEP energy, energy_weight, force_weight, nsims
28 -3258.0794255850041736 1 1 990
ITEM: NUMBER OF ATOMS
2
ITEM: BOX BOUNDS pp pp pp
0.0 3.1719942659557998
0.0 3.2568482845643834
0.0 3.2568482845643834
ITEM: ATOMS id type x y z
1 1 0.0 0.0 0.0
2 1 1.5859971329779 1.628424142282192 1.628424142282192
ITEM: TIMESTEP energy, energy_weight, force_weight, nsims
29 -3258.0800870896678134 1 1 990
ITEM: NUMBER OF ATOMS
2
ITEM: BOX BOUNDS pp pp pp
0.0 3.1761218484979996
0.0 3.2568842748616067
0.0 3.2568842748616067
ITEM: ATOMS id type x y z
1 1 0.0 0.0 0.0
2 1 1.5880609242489998 1.6284421374308032 1.6284421374308032
ITEM: TIMESTEP energy, energy_weight, force_weight, nsims
30 -3258.0807160769286384 1 1 990
ITEM: NUMBER OF ATOMS
2
ITEM: BOX BOUNDS pp pp pp
0.0 3.1801965133152996
0.0 3.2568710512513319
0.0 3.2568710512513319
ITEM: ATOMS id type x y z
1 1 0.0 0.0 0.0
2 1 1.5900982566576498 1.628435525625666 1.628435525625666
ITEM: TIMESTEP energy, energy_weight, force_weight, nsims
31 -3258.0813139073475214 1 1 990
ITEM: NUMBER OF ATOMS
2
ITEM: BOX BOUNDS pp pp pp
0.0 3.1842711781326001
0.0 3.2568630081804888
0.0 3.2568630081804888
ITEM: ATOMS id type x y z
1 1 0.0 0.0 0.0
2 1 1.5921355890663 1.6284315040902444 1.6284315040902444
ITEM: TIMESTEP energy, energy_weight, force_weight, nsims
32 -3258.081880853036182 1 1 990
ITEM: NUMBER OF ATOMS
2
ITEM: BOX BOUNDS pp pp pp
0.0 3.1883458429498997
0.0 3.2568633951148929
0.0 3.2568633951148929
ITEM: ATOMS id type x y z
1 1 0.0 0.0 0.0
2 1 1.5941729214749498 1.6284316975574464 1.6284316975574464
ITEM: TIMESTEP energy, energy_weight, force_weight, nsims
33 -3258.0824170500495712 1 1 990
ITEM: NUMBER OF ATOMS
2
ITEM: BOX BOUNDS pp pp pp
0.0 3.1924205077671997
0.0 3.2568659005574961
0.0 3.2568659005574961
ITEM: ATOMS id type x y z
1 1 0.0 0.0 0.0
2 1 1.5962102538835998 1.628432950278748 1.628432950278748
ITEM: TIMESTEP energy, energy_weight, force_weight, nsims
34 -3258.0829224983885978 1 1 990
ITEM: NUMBER OF ATOMS
2
ITEM: BOX BOUNDS pp pp pp
0.0 3.1964951725844997
0.0 3.2568737698994479
0.0 3.2568737698994479
ITEM: ATOMS id type x y z
1 1 0.0 0.0 0.0
2 1 1.5982475862922498 1.628436884949724 1.628436884949724
ITEM: TIMESTEP energy, energy_weight, force_weight, nsims
35 -3258.0833980143911504 1 1 990
ITEM: NUMBER OF ATOMS
2
ITEM: BOX BOUNDS pp pp pp
0.0 3.2005698374017997
0.0 3.2568902648305596
0.0 3.2568902648305596
ITEM: ATOMS id type x y z
1 1 0.0 0.0 0.0
2 1 1.6002849187008998 1.6284451324152798 1.6284451324152798
ITEM: TIMESTEP energy, energy_weight, force_weight, nsims
36 -3258.0838437341121790 1 1 990
ITEM: NUMBER OF ATOMS
2
ITEM: BOX BOUNDS pp pp pp
0.0 3.2045915844941995
0.0 3.2568552686457149
0.0 3.2568552686457149
ITEM: ATOMS id type x y z
1 1 0.0 0.0 0.0
2 1 1.6022957922470996 1.6284276343228574 1.6284276343228574
ITEM: TIMESTEP energy, energy_weight, force_weight, nsims
37 -3258.0842597936061794 1 1 990
ITEM: NUMBER OF ATOMS
2
ITEM: BOX BOUNDS pp pp pp
0.0 3.2086662493114999
0.0 3.2568796683736543
0.0 3.2568796683736543
ITEM: ATOMS id type x y z
1 1 0.0 0.0 0.0
2 1 1.60433312465575 1.6284398341868272 1.6284398341868272
ITEM: TIMESTEP energy, energy_weight, force_weight, nsims
38 -3258.0846468731556342 1 1 990
ITEM: NUMBER OF ATOMS
2
ITEM: BOX BOUNDS pp pp pp
0.0 3.2126879964039001
0.0 3.2568560309784611
0.0 3.2568560309784611
ITEM: ATOMS id type x y z
1 1 0.0 0.0 0.0
2 1 1.6063439982019504 1.6284280154892306 1.6284280154892306
ITEM: TIMESTEP energy, energy_weight, force_weight, nsims
39 -3258.0850051088159490 1 1 990
ITEM: NUMBER OF ATOMS
2
ITEM: BOX BOUNDS pp pp pp
0.0 3.2167626612211997
0.0 3.2568885586572734
0.0 3.2568885586572734
ITEM: ATOMS id type x y z
1 1 0.0 0.0 0.0
2 1 1.6083813306105998 1.628444279328637 1.628444279328637
ITEM: TIMESTEP energy, energy_weight, force_weight, nsims
40 -3258.0853339563627742 1 1 990
ITEM: NUMBER OF ATOMS
2
ITEM: BOX BOUNDS pp pp pp
0.0 3.2207844083135999
0.0 3.2568765183931623
0.0 3.2568765183931623
ITEM: ATOMS id type x y z
1 1 0.0 0.0 0.0
2 1 1.6103922041568 1.6284382591965812 1.6284382591965812
ITEM: TIMESTEP energy, energy_weight, force_weight, nsims
41 -3258.0856349124132976 1 1 990
ITEM: NUMBER OF ATOMS
2
ITEM: BOX BOUNDS pp pp pp
0.0 3.2248061554060001
0.0 3.2568671782030463
0.0 3.2568671782030463
ITEM: ATOMS id type x y z
1 1 0.0 0.0 0.0
2 1 1.6124030777030004 1.6284335891015232 1.6284335891015232
ITEM: TIMESTEP energy, energy_weight, force_weight, nsims
42 -3258.0859075687990298 1 1 990
ITEM: NUMBER OF ATOMS
2
ITEM: BOX BOUNDS pp pp pp
0.0 3.2288279024983999
0.0 3.2568638151757936
0.0 3.2568638151757936
ITEM: ATOMS id type x y z
1 1 0.0 0.0 0.0
2 1 1.6144139512492 1.6284319075878968 1.6284319075878968
ITEM: TIMESTEP energy, energy_weight, force_weight, nsims
43 -3258.0861523336880054 1 1 990
ITEM: NUMBER OF ATOMS
2
ITEM: BOX BOUNDS pp pp pp
0.0 3.2328496495908001
0.0 3.2568664896376101
0.0 3.2568664896376101
ITEM: ATOMS id type x y z
1 1 0.0 0.0 0.0
2 1 1.6164248247954004 1.628433244818805 1.628433244818805
ITEM: TIMESTEP energy, energy_weight, force_weight, nsims
44 -3258.0863698873608882 1 1 990
ITEM: NUMBER OF ATOMS
2
ITEM: BOX BOUNDS pp pp pp
0.0 3.2368713966831995
0.0 3.2568720250433048
0.0 3.2568720250433048
ITEM: ATOMS id type x y z
1 1 0.0 0.0 0.0
2 1 1.6184356983415996 1.6284360125216524 1.6284360125216524
ITEM: TIMESTEP energy, energy_weight, force_weight, nsims
45 -3258.0865599577055036 1 1 990
ITEM: NUMBER OF ATOMS
2
ITEM: BOX BOUNDS pp pp pp
0.0 3.2408931437755997
0.0 3.2568837105469886
0.0 3.2568837105469886
ITEM: ATOMS id type x y z
1 1 0.0 0.0 0.0
2 1 1.6204465718877998 1.6284418552734946 1.6284418552734946
ITEM: TIMESTEP energy, energy_weight, force_weight, nsims
46 -3258.0867236331710046 1 1 990
ITEM: NUMBER OF ATOMS
2
ITEM: BOX BOUNDS pp pp pp
0.0 3.2448619731430997
0.0 3.2568484932718907
0.0 3.2568484932718907
ITEM: ATOMS id type x y z
1 1 0.0 0.0 0.0
2 1 1.6224309865715498 1.6284242466359452 1.6284242466359452
ITEM: TIMESTEP energy, energy_weight, force_weight, nsims
47 -3258.0868594171392942 1 1 990
ITEM: NUMBER OF ATOMS
2
ITEM: BOX BOUNDS pp pp pp
0.0 3.2488837202354999
0.0 3.2568694764198392
0.0 3.2568694764198392
ITEM: ATOMS id type x y z
1 1 0.0 0.0 0.0
2 1 1.62444186011775 1.6284347382099196 1.6284347382099196
ITEM: TIMESTEP energy, energy_weight, force_weight, nsims
48 -3258.0869694865082238 1 1 990
ITEM: NUMBER OF ATOMS
2
ITEM: BOX BOUNDS pp pp pp
0.0 3.2528525496029999
0.0 3.2568437996813629
0.0 3.2568437996813629
ITEM: ATOMS id type x y z
1 1 0.0 0.0 0.0
2 1 1.6264262748015 1.6284218998406814 1.6284218998406814
ITEM: TIMESTEP energy, energy_weight, force_weight, nsims
49 -3258.0870528888858644 1 1 990
ITEM: NUMBER OF ATOMS
2
ITEM: BOX BOUNDS pp pp pp
0.0 3.2568742966954001
0.0 3.2568710398211032
0.0 3.2568710398211032
ITEM: ATOMS id type x y z
1 1 0.0 0.0 0.0
2 1 1.6284371483477 1.6284355199105516 1.6284355199105516
ITEM: TIMESTEP energy, energy_weight, force_weight, nsims
50 -3258.087109624272216 1 1 990
ITEM: NUMBER OF ATOMS
2
ITEM: BOX BOUNDS pp pp pp
0.0 3.2608431260628996
0.0 3.2568583757628509
0.0 3.2568583757628509
ITEM: ATOMS id type x y z
1 1 0.0 0.0 0.0
2 1 1.6304215630314498 1.6284291878814254 1.6284291878814254
ITEM: TIMESTEP energy, energy_weight, force_weight, nsims
51 -3258.0871415974502270 1 1 990
ITEM: NUMBER OF ATOMS
2
ITEM: BOX BOUNDS pp pp pp
0.0 3.2648119554303996
0.0 3.2568458142591492
0.0 3.2568458142591492
ITEM: ATOMS id type x y z
1 1 0.0 0.0 0.0
2 1 1.6324059777151998 1.6284229071295746 1.6284229071295746
ITEM: TIMESTEP energy, energy_weight, force_weight, nsims
52 -3258.0871474478617528 1 1 990
ITEM: NUMBER OF ATOMS
2
ITEM: BOX BOUNDS pp pp pp
0.0 3.2688337025227998
0.0 3.2568926530074838
0.0 3.2568926530074838
ITEM: ATOMS id type x y z
1 1 0.0 0.0 0.0
2 1 1.6344168512614 1.6284463265037422 1.6284463265037422
ITEM: TIMESTEP energy, energy_weight, force_weight, nsims
53 -3258.0871281278987226 1 1 990
ITEM: NUMBER OF ATOMS
2
ITEM: BOX BOUNDS pp pp pp
0.0 3.2728025318902998
0.0 3.256890165980249
0.0 3.256890165980249
ITEM: ATOMS id type x y z
1 1 0.0 0.0 0.0
2 1 1.63640126594515 1.6284450829901248 1.6284450829901248
ITEM: TIMESTEP energy, energy_weight, force_weight, nsims
54 -3258.087083365448052 1 1 990
ITEM: NUMBER OF ATOMS
2
ITEM: BOX BOUNDS pp pp pp
0.0 3.2767713612577998
0.0 3.2568911894090485
0.0 3.2568911894090485
ITEM: ATOMS id type x y z
1 1 0.0 0.0 0.0
2 1 1.6383856806289002 1.6284455947045242 1.6284455947045242
ITEM: TIMESTEP energy, energy_weight, force_weight, nsims
55 -3258.0870137047350 1 1 990
ITEM: NUMBER OF ATOMS
2
ITEM: BOX BOUNDS pp pp pp
0.0 3.2806872729004
0.0 3.2568465184882327
0.0 3.2568465184882327
ITEM: ATOMS id type x y z
1 1 0.0 0.0 0.0
2 1 1.6403436364502 1.6284232592441164 1.6284232592441164
ITEM: TIMESTEP energy, energy_weight, force_weight, nsims
56 -3258.0869194178708312 1 1 990
ITEM: NUMBER OF ATOMS
2
ITEM: BOX BOUNDS pp pp pp
0.0 3.2846561022678995
0.0 3.2568580576744064
0.0 3.2568580576744064
ITEM: ATOMS id type x y z
1 1 0.0 0.0 0.0
2 1 1.6423280511339498 1.6284290288372032 1.6284290288372032
ITEM: TIMESTEP energy, energy_weight, force_weight, nsims
57 -3258.0868010490808046 1 1 990
ITEM: NUMBER OF ATOMS
2
ITEM: BOX BOUNDS pp pp pp
0.0 3.2886249316353995
0.0 3.2568765465453913
0.0 3.2568765465453913
ITEM: ATOMS id type x y z
1 1 0.0 0.0 0.0
2 1 1.6443124658176996 1.6284382732726956 1.6284382732726956
ITEM: TIMESTEP energy, energy_weight, force_weight, nsims
58 -3258.0866585983640106 1 1 990
ITEM: NUMBER OF ATOMS
2
ITEM: BOX BOUNDS pp pp pp
0.0 3.2925408432780001
0.0 3.25684311545518
0.0 3.25684311545518
ITEM: ATOMS id type x y z
1 1 0.0 0.0 0.0
2 1 1.6462704216390004 1.62842155772759 1.62842155772759
ITEM: TIMESTEP energy, energy_weight, force_weight, nsims
59 -3258.0864917936091842 1 1 990
ITEM: NUMBER OF ATOMS
2
ITEM: BOX BOUNDS pp pp pp
0.0 3.2965096726454997
0.0 3.2568724403416103
0.0 3.2568724403416103
ITEM: ATOMS id type x y z
1 1 0.0 0.0 0.0
2 1 1.6482548363227498 1.6284362201708052 1.6284362201708052
ITEM: TIMESTEP energy, energy_weight, force_weight, nsims
60 -3258.0863017232650236 1 1 990
ITEM: NUMBER OF ATOMS
2
ITEM: BOX BOUNDS pp pp pp
0.0 3.3004255842880999
0.0 3.2568500652987442
0.0 3.2568500652987442
ITEM: ATOMS id type x y z
1 1 0.0 0.0 0.0
2 1 1.65021279214405 1.6284250326493722 1.6284250326493722
ITEM: TIMESTEP energy, energy_weight, force_weight, nsims
61 -3258.0860878431058154 1 1 990
ITEM: NUMBER OF ATOMS
2
ITEM: BOX BOUNDS pp pp pp
0.0 3.3043944136555999
0.0 3.2568838307760597
0.0 3.2568838307760597
ITEM: ATOMS id type x y z
1 1 0.0 0.0 0.0
2 1 1.6521972068278 1.6284419153880298 1.6284419153880298
ITEM: TIMESTEP energy, energy_weight, force_weight, nsims
62 -3258.0858502891887838 1 1 990
ITEM: NUMBER OF ATOMS
2
ITEM: BOX BOUNDS pp pp pp
0.0 3.3083103252982
0.0 3.2568727163604634
0.0 3.2568727163604634
ITEM: ATOMS id type x y z
1 1 0.0 0.0 0.0
2 1 1.6541551626491 1.6284363581802318 1.6284363581802318
ITEM: TIMESTEP energy, energy_weight, force_weight, nsims
63 -3258.0855900139067672 1 1 990
ITEM: NUMBER OF ATOMS
2
ITEM: BOX BOUNDS pp pp pp
0.0 3.3122262369407998
0.0 3.2568656876165712
0.0 3.2568656876165712
ITEM: ATOMS id type x y z
1 1 0.0 0.0 0.0
2 1 1.6561131184704002 1.6284328438082856 1.6284328438082856
ITEM: TIMESTEP energy, energy_weight, force_weight, nsims
64 -3258.0853067451462266 1 1 990
ITEM: NUMBER OF ATOMS
2
ITEM: BOX BOUNDS pp pp pp
0.0 3.3161421485834
0.0 3.256862791535323
0.0 3.256862791535323
ITEM: ATOMS id type x y z
1 1 0.0 0.0 0.0
2 1 1.6580710742917 1.6284313957676616 1.6284313957676616
ITEM: TIMESTEP energy, energy_weight, force_weight, nsims
65 -3258.0850002107968066 1 1 990
ITEM: NUMBER OF ATOMS
2
ITEM: BOX BOUNDS pp pp pp
0.0 3.3200580602259997
0.0 3.2568640751076581
0.0 3.2568640751076581
ITEM: ATOMS id type x y z
1 1 0.0 0.0 0.0
2 1 1.6600290301129998 1.628432037553829 1.628432037553829
ITEM: TIMESTEP energy, energy_weight, force_weight, nsims
66 -3258.0846719074743306 1 1 990
ITEM: NUMBER OF ATOMS
2
ITEM: BOX BOUNDS pp pp pp
0.0 3.3239739718685995
0.0 3.2568695853245165
0.0 3.2568695853245165
ITEM: ATOMS id type x y z
1 1 0.0 0.0 0.0
2 1 1.6619869859342996 1.6284347926622582 1.6284347926622582
ITEM: TIMESTEP energy, energy_weight, force_weight, nsims
67 -3258.0843206106737852 1 1 990
ITEM: NUMBER OF ATOMS
2
ITEM: BOX BOUNDS pp pp pp
0.0 3.3278898835111997
0.0 3.2568793691768376
0.0 3.2568793691768376
ITEM: ATOMS id type x y z
1 1 0.0 0.0 0.0
2 1 1.6639449417555998 1.6284396845884188 1.6284396845884188
ITEM: TIMESTEP energy, energy_weight, force_weight, nsims
68 -3258.0839472727889188 1 1 990
ITEM: NUMBER OF ATOMS
2
ITEM: BOX BOUNDS pp pp pp
0.0 3.3317528774288996
0.0 3.2568417457327885
0.0 3.2568417457327885
ITEM: ATOMS id type x y z
1 1 0.0 0.0 0.0
2 1 1.6658764387144498 1.6284208728663948 1.6284208728663948
ITEM: TIMESTEP energy, energy_weight, force_weight, nsims
69 -3258.083552438042716 1 1 990
ITEM: NUMBER OF ATOMS
2
ITEM: BOX BOUNDS pp pp pp
0.0 3.3356687890714998
0.0 3.2568636139296854
0.0 3.2568636139296854
ITEM: ATOMS id type x y z
1 1 0.0 0.0 0.0
2 1 1.6678343945357502 1.628431806964843 1.628431806964843
ITEM: TIMESTEP energy, energy_weight, force_weight, nsims
70 -3258.0831352900995626 1 1 990
ITEM: NUMBER OF ATOMS
2
ITEM: BOX BOUNDS pp pp pp
0.0 3.3395847007141
0.0 3.2568865647703169
0.0 3.2568865647703169
ITEM: ATOMS id type x y z
1 1 0.0 0.0 0.0
2 1 1.66979235035705 1.6284432823851588 1.6284432823851588
ITEM: TIMESTEP energy, energy_weight, force_weight, nsims
71 -3258.082697053463562 1 1 990
ITEM: NUMBER OF ATOMS
2
ITEM: BOX BOUNDS pp pp pp
0.0 3.3434476946317999
0.0 3.2568624296839204
0.0 3.2568624296839204
ITEM: ATOMS id type x y z
1 1 0.0 0.0 0.0
2 1 1.6717238473159 1.6284312148419602 1.6284312148419602
ITEM: TIMESTEP energy, energy_weight, force_weight, nsims
72 -3258.0822370478554148 1 1 990
ITEM: NUMBER OF ATOMS
2
ITEM: BOX BOUNDS pp pp pp
0.0 3.3473106885494999
0.0 3.2568429225700726
0.0 3.2568429225700726
ITEM: ATOMS id type x y z
1 1 0.0 0.0 0.0
2 1 1.67365534427475 1.6284214612850366 1.6284214612850366
ITEM: TIMESTEP energy, energy_weight, force_weight, nsims
73 -3258.0817560896098258 1 1 990
ITEM: NUMBER OF ATOMS
2
ITEM: BOX BOUNDS pp pp pp
0.0 3.3512266001921001
0.0 3.2568795177168921
0.0 3.2568795177168921
ITEM: ATOMS id type x y z
1 1 0.0 0.0 0.0
2 1 1.67561330009605 1.6284397588584464 1.6284397588584464
ITEM: TIMESTEP energy, energy_weight, force_weight, nsims
74 -3258.0812541787281588 1 1 990
ITEM: NUMBER OF ATOMS
2
ITEM: BOX BOUNDS pp pp pp
0.0 3.3550895941098
0.0 3.2568693462422354
0.0 3.2568693462422354
ITEM: ATOMS id type x y z
1 1 0.0 0.0 0.0
2 1 1.6775447970549 1.628434673121118 1.628434673121118
ITEM: TIMESTEP energy, energy_weight, force_weight, nsims
75 -3258.0807313152104144 1 1 990
ITEM: NUMBER OF ATOMS
2
ITEM: BOX BOUNDS pp pp pp
0.0 3.3589525880275
0.0 3.2568639420195802
0.0 3.2568639420195802
ITEM: ATOMS id type x y z
1 1 0.0 0.0 0.0
2 1 1.67947629401375 1.6284319710097902 1.6284319710097902
ITEM: TIMESTEP energy, energy_weight, force_weight, nsims
76 -3258.0801877711683118 1 1 990
ITEM: NUMBER OF ATOMS
2
ITEM: BOX BOUNDS pp pp pp
0.0 3.3628155819451999
0.0 3.2568633514048529
0.0 3.2568633514048529
ITEM: ATOMS id type x y z
1 1 0.0 0.0 0.0
2 1 1.6814077909726 1.6284316757024264 1.6284316757024264
ITEM: TIMESTEP energy, energy_weight, force_weight, nsims
77 -3258.0796238187135714 1 1 990
ITEM: NUMBER OF ATOMS
2
ITEM: BOX BOUNDS pp pp pp
0.0 3.3666785758628999
0.0 3.2568642540754036
0.0 3.2568642540754036
ITEM: ATOMS id type x y z
1 1 0.0 0.0 0.0
2 1 1.68333928793145 1.6284321270377018 1.6284321270377018
ITEM: TIMESTEP energy, energy_weight, force_weight, nsims
78 -3258.0790397299601864 1 1 990
ITEM: NUMBER OF ATOMS
2
ITEM: BOX BOUNDS pp pp pp
0.0 3.3705415697805998
0.0 3.2568734258813188
0.0 3.2568734258813188
ITEM: ATOMS id type x y z
1 1 0.0 0.0 0.0
2 1 1.6852707848903 1.6284367129406594 1.6284367129406594
ITEM: TIMESTEP energy, energy_weight, force_weight, nsims
79 -3258.0784350967369392 1 1 990
ITEM: NUMBER OF ATOMS
2
ITEM: BOX BOUNDS pp pp pp
0.0 3.3744045636982994
0.0 3.2568841759583784
0.0 3.2568841759583784
ITEM: ATOMS id type x y z
1 1 0.0 0.0 0.0
2 1 1.68720228184915 1.6284420879791892 1.6284420879791892
ITEM: TIMESTEP energy, energy_weight, force_weight, nsims
80 -3258.077810191158278 1 1 990
ITEM: NUMBER OF ATOMS
2
ITEM: BOX BOUNDS pp pp pp
0.0 3.3782146398910995
0.0 3.2568489007383717
0.0 3.2568489007383717
ITEM: ATOMS id type x y z
1 1 0.0 0.0 0.0
2 1 1.6891073199455496 1.6284244503691858 1.6284244503691858
ITEM: TIMESTEP energy, energy_weight, force_weight, nsims
81 -3258.0771663737846212 1 1 990
ITEM: NUMBER OF ATOMS
2
ITEM: BOX BOUNDS pp pp pp
0.0 3.3820776338087999
0.0 3.2568697377275644
0.0 3.2568697377275644
ITEM: ATOMS id type x y z
1 1 0.0 0.0 0.0
2 1 1.6910388169044 1.6284348688637822 1.6284348688637822
ITEM: TIMESTEP energy, energy_weight, force_weight, nsims
82 -3258.0765031003916192 1 1 990
ITEM: NUMBER OF ATOMS
2
ITEM: BOX BOUNDS pp pp pp
0.0 3.3858877100015996
0.0 3.2568413717103089
0.0 3.2568413717103089
ITEM: ATOMS id type x y z
1 1 0.0 0.0 0.0
2 1 1.6929438550007998 1.6284206858551544 1.6284206858551544
ITEM: TIMESTEP energy, energy_weight, force_weight, nsims
83 -3258.0758199628107832 1 1 990
ITEM: NUMBER OF ATOMS
2
ITEM: BOX BOUNDS pp pp pp
0.0 3.3897507039193
0.0 3.2568690865749592
0.0 3.2568690865749592
ITEM: ATOMS id type x y z
1 1 0.0 0.0 0.0
2 1 1.69487535195965 1.6284345432874796 1.6284345432874796
ITEM: TIMESTEP energy, energy_weight, force_weight, nsims
84 -3258.0751175052660074 1 1 990
ITEM: NUMBER OF ATOMS
2
ITEM: BOX BOUNDS pp pp pp
0.0 3.3935607801120997
0.0 3.2568511840852836
0.0 3.2568511840852836
ITEM: ATOMS id type x y z
1 1 0.0 0.0 0.0
2 1 1.6967803900560504 1.6284255920426418 1.6284255920426418
ITEM: TIMESTEP energy, energy_weight, force_weight, nsims
85 -3258.0743955917023414 1 1 990
ITEM: NUMBER OF ATOMS
2
ITEM: BOX BOUNDS pp pp pp
0.0 3.3974237740298001
0.0 3.2568859421932834
0.0 3.2568859421932834
ITEM: ATOMS id type x y z
1 1 0.0 0.0 0.0
2 1 1.6987118870149004 1.6284429710966416 1.6284429710966416
ITEM: TIMESTEP energy, energy_weight, force_weight, nsims
86 -3258.0736551745112592 1 1 990
ITEM: NUMBER OF ATOMS
2
ITEM: BOX BOUNDS pp pp pp
0.0 3.4012338502225994
0.0 3.2568752819176017
0.0 3.2568752819176017
ITEM: ATOMS id type x y z
1 1 0.0 0.0 0.0
2 1 1.7006169251112998 1.6284376409588008 1.6284376409588008
ITEM: TIMESTEP energy, energy_weight, force_weight, nsims
87 -3258.0728953013008322 1 1 990
ITEM: NUMBER OF ATOMS
2
ITEM: BOX BOUNDS pp pp pp
0.0 3.4050439264153996
0.0 3.2568700349135069
0.0 3.2568700349135069
ITEM: ATOMS id type x y z
1 1 0.0 0.0 0.0
2 1 1.7025219632076998 1.628435017456754 1.628435017456754
ITEM: TIMESTEP energy, energy_weight, force_weight, nsims
88 -3258.0721171965756184 1 1 990
ITEM: NUMBER OF ATOMS
2
ITEM: BOX BOUNDS pp pp pp
0.0 3.4088540026081997
0.0 3.2568668380479107
0.0 3.2568668380479107
ITEM: ATOMS id type x y z
1 1 0.0 0.0 0.0
2 1 1.7044270013041004 1.6284334190239552 1.6284334190239552
ITEM: TIMESTEP energy, energy_weight, force_weight, nsims
89 -3258.0713205882229886 1 1 990
ITEM: NUMBER OF ATOMS
2
ITEM: BOX BOUNDS pp pp pp
0.0 3.4126640788009999
0.0 3.2568691382755764
0.0 3.2568691382755764
ITEM: ATOMS id type x y z
1 1 0.0 0.0 0.0
2 1 1.7063320394005 1.6284345691377882 1.6284345691377882
ITEM: TIMESTEP energy, energy_weight, force_weight, nsims
90 -3258.0705056123001668 1 1 990
ITEM: NUMBER OF ATOMS
2
ITEM: BOX BOUNDS pp pp pp
0.0 3.4164741549937996
0.0 3.256876981317419
0.0 3.256876981317419
ITEM: ATOMS id type x y z
1 1 0.0 0.0 0.0
2 1 1.7082370774968998 1.6284384906587096 1.6284384906587096
ITEM: TIMESTEP energy, energy_weight, force_weight, nsims
91 -3258.0696725409179634 1 1 990
ITEM: NUMBER OF ATOMS
2
ITEM: BOX BOUNDS pp pp pp
0.0 3.4202842311865998
0.0 3.2568869926101223
0.0 3.2568869926101223
ITEM: ATOMS id type x y z
1 1 0.0 0.0 0.0
2 1 1.7101421155933002 1.6284434963050612 1.6284434963050612
ITEM: TIMESTEP energy, energy_weight, force_weight, nsims
92 -3258.0688211019655682 1 1 990
ITEM: NUMBER OF ATOMS
2
ITEM: BOX BOUNDS pp pp pp
0.0 3.4240413896545001
0.0 3.2568488726390603
0.0 3.2568488726390603
ITEM: ATOMS id type x y z
1 1 0.0 0.0 0.0
2 1 1.7120206948272504 1.6284244363195302 1.6284244363195302
ITEM: TIMESTEP energy, energy_weight, force_weight, nsims
93 -3258.0679515675537914 1 1 990
ITEM: NUMBER OF ATOMS
2
ITEM: BOX BOUNDS pp pp pp
0.0 3.4278514658472994
0.0 3.2568668068793705
0.0 3.2568668068793705
ITEM: ATOMS id type x y z
1 1 0.0 0.0 0.0
2 1 1.7139257329236498 1.6284334034396852 1.6284334034396852
ITEM: TIMESTEP energy, energy_weight, force_weight, nsims
94 -3258.0670644819078916 1 1 990
ITEM: NUMBER OF ATOMS
2
ITEM: BOX BOUNDS pp pp pp
0.0 3.4316615420400996
0.0 3.2568904513655395
0.0 3.2568904513655395
ITEM: ATOMS id type x y z
1 1 0.0 0.0 0.0
2 1 1.7158307710200498 1.6284452256827696 1.6284452256827696
ITEM: TIMESTEP energy, energy_weight, force_weight, nsims
95 -3258.0661597089715542 1 1 990
ITEM: NUMBER OF ATOMS
2
ITEM: BOX BOUNDS pp pp pp
0.0 3.4354187005079999
0.0 3.2568662489677971
0.0 3.2568662489677971
ITEM: ATOMS id type x y z
1 1 0.0 0.0 0.0
2 1 1.717709350254 1.6284331244838984 1.6284331244838984
ITEM: TIMESTEP energy, energy_weight, force_weight, nsims