ITEM: TIMESTEP energy, energy_weight, force_weight, nsims
0 -86335.113360833069236 1 1 254
ITEM: NUMBER OF ATOMS
53
ITEM: BOX BOUNDS xy xz yz pp pp pp
0.0 10.4776615528738954 0.239339244648966
0.0 9.6925836449833156 0.6651354497406306
0.0 9.8015265114328668 0.0592293070934424
ITEM: ATOMS id type x y z
1 1 -0.0639762618675077 0.0878764747646145 0.0637755925519402
2 1 1.6816773672710306 1.5596003464720004 1.7229417347592032
3 1 0.3049790674282005 -0.0603250947281623 3.2597475803030416
4 1 2.0568922412854831 1.5838203796250342 4.949676793619087
5 1 0.4668690893392144 0.119519926089491 6.412684985753045
6 1 2.2579800567521762 1.5453112397777012 8.1160491514583129
7 1 0.1681682713291823 3.2014642331493675 0.0078157372402166
8 1 1.935718025292523 4.8347040779025 1.6592141696871692
9 1 0.2980997833759389 3.2670517026290247 3.2869801415624056
10 1 2.1223269822366131 4.929376999098709 4.8177707902861774
11 1 0.6318153423991626 3.1261550570098504 6.6386944649695706
12 1 2.1618288267118988 4.7517342417695058 8.1972763619638585
13 1 0.0511499420224291 6.3691501073837094 -0.0985053414399003
14 1 1.8426552837042392 8.0515380829373502 1.6618880261194882
15 1 0.2630034669868699 6.4185145816891609 3.1756465622243422
16 1 2.0952171994709437 8.1361846202158983 4.9255023086312892
17 1 0.571981870833062 6.4241173228530651 6.4076636637212383
18 1 2.3520963300729419 7.969815871394692 8.284299215095615
19 1 3.0702642142450296 0.1240131167026562 -0.0159323813443341
20 1 5.04180661304631 1.5816434810457022 1.6545672659680988
21 1 3.4064766231250197 0.024919560356978 3.1991800273782931
22 1 5.0460731536041221 1.7208750382927904 4.8053983233707954
23 1 3.698953302184481 -0.0668858619205892 6.4070422469404127
24 1 5.4009508907662216 1.6652714613731538 8.145845792053068
25 1 3.3714058087062999 3.1633998175107072 -0.0223376789195555
26 1 4.9812619525560536 4.7217338074668032 1.5643736190098936
27 1 3.3895340303614967 3.1716756779102742 3.21412049423967
28 1 5.1500743435782566 4.8637855784661524 5.0200978211457796
29 1 3.8189665476056224 3.3097948352748779 6.561554491019292
30 1 5.3502152875405846 4.94546292611391 8.1529587598424165
31 1 3.3188976248039475 6.3534675802388829 0.0457025578175092
32 1 5.2108806690781737 8.0589182158395083 1.7361796764655446
33 1 3.4689903697355744 6.4751434296091884 3.2341753976347128
34 1 5.3676443825655662 7.9976002383359602 4.8510695163034684
35 1 3.6760600460585304 6.5136720602754164 6.555155074359976
36 1 5.6161298016108088 8.1111558080465844 8.1679786190685349
37 1 6.4324988732018822 -0.026611282095016 0.0154462256293671
38 1 8.133936708109804 1.6917374905484006 1.6904663369688732
39 1 6.6597394894249336 -0.028164403306473 3.287442773613746
40 1 8.3623089911585584 1.6456142547573976 4.8946382817994386
41 1 6.9013435954374414 0.0426345897796994 6.526414058170503
42 1 8.5416398751226944 1.6678025022056754 8.1524412392426129
43 1 6.3714010692697194 3.3303652580486212 0.0945386636607234
44 1 8.2714498021256713 4.824738255076353 1.6403834769534046
45 1 6.777513292944458 3.2025014238472545 3.3802289243342254
46 1 8.4367106692859704 4.9419418318211692 5.0087603954300048
47 1 6.949183416314324 3.156200380671172 6.541426076175414
48 1 8.6082991131265594 4.8322949708227956 8.2921090714199242
49 1 6.481968377168995 6.4569988889540006 0.0498015562045904
50 1 8.233039982211821 8.0720726982022182 1.6904496743738038
51 1 6.865184135531857 6.5299508112407444 3.1422478606366342
52 1 8.4061485572578043 8.1306886922127255 4.8213865734162448
53 1 7.045354879182594 6.4316339302071972 6.4532074368092616
ITEM: TIMESTEP energy, energy_weight, force_weight, nsims
1 -86335.170248193357114 1 1 254
ITEM: NUMBER OF ATOMS
53
ITEM: BOX BOUNDS xy xz yz pp pp pp
-0.0890951780933124 10.4450126947469038 -0.0890951780933124
0.0 9.8125116327813906 0.4846797608942062
0.0 9.9371452787826886 0.0883979547879427
ITEM: ATOMS id type x y z
1 1 -0.1150843907379626 0.088666322605027 0.0360628939312303
2 1 1.5950827584346416 1.7428254756166066 1.5878504818095188
3 1 0.0660410408918524 0.0791315221374084 3.395307899422023
4 1 1.7825950809736092 1.638415808144115 5.0484722560053967
5 1 0.3925999090830329 0.1380281490527845 6.5776766875231232
6 1 2.1721248277354883 1.7318061152746846 8.2191788104073176
7 1 -0.1115085159806297 3.1700251755559279 0.0904121226044764
8 1 1.8166918145573656 4.8888982275055524 1.7785035574137154
9 1 0.1332225594786772 3.1486814752087855 3.3294206513655822
10 1 1.776119229658632 5.0104074720672065 5.0322558286249501
11 1 0.3716747398440615 3.3486652113915341 6.5216212510055094
12 1 1.9499414162164504 4.9332304486457658 8.269472690092293
13 1 0.0329471945964181 6.3612228505353672 -0.0223665265934841
14 1 1.666874745179402 8.2106603446864632 1.6480964124911944
15 1 0.1645562028334338 6.4956069942770248 3.4159244947319132
16 1 1.8588747235359464 8.1105775869564436 5.0029770237755455
17 1 0.2605261939809844 6.641736036137477 6.5160157073537484
18 1 1.8832874202606166 8.2643354030088556 8.2338291436918265
19 1 3.3887788581014582 0.0756748752635479 -0.0621031831342803
20 1 5.1491560269120136 1.6322877315997096 1.602296109901285
21 1 3.5592732396143122 0.1189532933705983 3.2072434501629488
22 1 5.1641702209615561 1.6008232121515238 5.0597151421738111
23 1 3.7024823080895662 -0.0238223159116433 6.5517278200566374
24 1 5.2970729500630025 1.7074992892664582 8.1566036128722939
25 1 3.4167944709700304 3.1763860786436835 0.0686994601703362
26 1 4.9309086756012954 4.8235380185706812 1.5319421150420314
27 1 3.569599681207948 3.2062333904358926 3.3995709347466208
28 1 5.2310614507526827 4.8896480230248676 4.84570778773542
29 1 3.580943913630497 3.2268265615587031 6.7376905630892496
30 1 5.2642115303378132 5.011394835133804 8.3607503380505506
31 1 3.2488856970096536 6.5137657417588218 0.1076868559571122
32 1 5.0102739979075865 8.0083478333920066 1.5666157960632878
33 1 3.5167063072842808 6.4507257853518834 3.4011072174067203
34 1 5.2223780513548634 8.153456041599604 5.0824443745699712
35 1 3.6282096390171974 6.4647778990981202 6.681221741328038
36 1 5.4338796650827588 8.2484886314994111 8.2696436089910872
37 1 6.5584813602007302 0.058286568949689 0.0515121736961537
38 1 8.3816764448118342 1.6075773435957612 1.5475901377125304
39 1 6.7198579619154658 0.0500261045206486 3.4399972291697649
40 1 8.4632939240520386 1.787080000297284 4.9141270204088938
41 1 7.0366836860910071 0.017285751676118 6.5366819883900336
42 1 8.6776755374286978 1.6497889247413204 8.2268165002685905
43 1 6.659467231561071 3.2673717415605492 0.0549315453865828
44 1 8.3912563717391464 4.8102584519603538 1.756106225669867
45 1 6.8206306828870878 3.3744504533094269 3.2553451955994244
46 1 8.5059744645311586 4.9975098416464618 5.0011505764733055
47 1 6.9962437334308482 3.3501965803723817 6.6996710452526278
48 1 8.786365338595461 4.993946925598018 8.3707053701908354
49 1 6.5329744888250288 6.4355292518001433 -0.0576115934682705
50 1 8.2703528746756341 8.1410032464715094 1.7657859988859292
51 1 6.6886742665173654 6.6280112453890788 3.3484502845744513
52 1 8.4143654657339546 8.0914327219347335 4.8715801391832576
53 1 6.7905333498275874 6.615423005895714 6.7252870183522734
ITEM: TIMESTEP energy, energy_weight, force_weight, nsims
2 -86334.4910566468743094 1 1 254
ITEM: NUMBER OF ATOMS
53
ITEM: BOX BOUNDS xy xz yz pp pp pp
0.0 10.5800693488557496 0.7327582349869176
-0.8877908800744274 9.7083972114371858 0.1547418680101341
0.0 9.6338516613672862 -0.8877908800744274
ITEM: ATOMS id type x y z
1 1 -0.0443425685985537 -0.0811234046080428 0.0482193543354755
2 1 1.6646199016823358 1.5889210195151748 1.5817955916722204
3 1 0.1128521657846091 -0.2413097968339598 3.2625992402534792
4 1 1.7236141142663136 1.1820987506773175 4.8524101965079566
5 1 0.074259881810077 -0.6828228748002848 6.4726034307468892
6 1 1.952149761962318 0.879700732053496 8.1131876754122701
7 1 0.2824349702506011 3.1861679237072087 0.0197098971139913
8 1 2.0349598684019812 4.609127805674513 1.5276755031941576
9 1 0.3363826028286878 2.8237297576265644 3.2438835566309403
10 1 2.0539540710026185 4.4989591241111758 4.861606671303898
11 1 0.355094308762319 2.7198886097710592 6.4899250960340274
12 1 2.1570644106459431 4.1008200362143397 8.0889855132685842
13 1 0.3619882542099003 6.3477094643767025 0.0498185737112625
14 1 2.2522759813831854 7.8504913312457276 1.7291944854763062
15 1 0.652599706343579 6.1948642601035546 3.3049091899798717
16 1 2.202169191171675 7.7021321564332404 4.7504724853086976
17 1 0.467844969033114 5.7970739127576216 6.4615534028913012
18 1 2.3916916323348781 7.2740951973335531 8.1425025226326451
19 1 3.1634481809796369 -0.1330446516401439 0.1065494359895561
20 1 4.8866178070762248 1.374710519270731 1.521098472664942
21 1 3.2840672527049346 -0.2156030735912661 3.174232735889587
22 1 5.0343977921528733 1.1625968066022992 4.8494362265000924
23 1 3.4106971747082993 -0.7000137843633396 6.4668645453122134
24 1 4.965142730844578 0.758926315923559 7.9671298137594472
25 1 3.494813834025388 3.1851271373866053 -0.0378215382373618
26 1 5.246495280439337 4.8084878807043526 1.6109331760220258
27 1 3.4546506743112282 2.9782596424817114 3.2654238855605922
28 1 5.2523905534055544 4.284465359214817 4.836083708097438
29 1 3.6660198258801726 2.7266643264666732 6.419158675270289
30 1 5.3614330134123458 4.1640491627785306 8.1031626893734519
31 1 3.7438522619887778 6.5551821472321202 -0.0983818565510489
32 1 5.4817286180725154 8.0476500204313144 1.716735988507826
33 1 3.8249298508939926 6.1293452284115766 3.1757491041410866
34 1 5.4919992460321856 7.6807714547097126 4.796703412661266
35 1 3.713290896359296 5.9440421666415712 6.5458168498326152
36 1 5.673832073455965 7.3363278414107223 7.9919157873138146
37 1 6.4174963768418856 -0.0724192653954632 -0.1157121923046825
38 1 8.270203698875374 1.566882020345991 1.5624739387801826
39 1 6.5862664823383082 -0.3024091583983358 3.2350242666431468
40 1 8.1504668510787717 1.1640087084675006 4.7073677428202424
41 1 6.5350940973107684 -0.4891926297827306 6.4493193746665307
42 1 8.2200218485401386 0.8592709245685246 8.0800279579938454
43 1 6.8263175774100722 3.2117675298232897 0.0419544606000884
44 1 8.3959911378845274 4.626900678379001 1.7193429087673922
45 1 6.7707658436386168 2.9890386033330766 3.3028157540138561
46 1 8.5350354736712184 4.3646568404777036 4.7183426266328716
47 1 6.7340560697512286 2.6347554491699592 6.4160768061238169
48 1 8.660337899432772 4.0489261527620135 7.9134143470511624
49 1 6.8431126110014624 6.4397287953807281 0.0120163031772234
50 1 8.7406984813906644 7.844098987600801 1.6697488037998394
51 1 6.989055090106862 6.170167091299243 3.2462708250726276
52 1 8.809523711952302 7.5237996897092758 4.8364478676902376
53 1 7.0211423789633125 5.9072660863037818 6.3404221690270992
ITEM: TIMESTEP energy, energy_weight, force_weight, nsims
3 -86334.4548141641612336 1 1 254
ITEM: NUMBER OF ATOMS
53
ITEM: BOX BOUNDS xy xz yz pp pp pp
-0.4064912948451619 10.1362685893442226 -0.4064912948451619
-0.752273878113429 9.7067890608807748 0.2488562804037235
0.0 9.8745586729388766 -0.752273878113429
ITEM: ATOMS id type x y z
1 1 0.0765969396434319 -0.0454296783228421 -0.1078054943118102
2 1 1.6744719323286628 1.577001316950686 1.7370425032594836
3 1 0.1522764924029896 -0.1529761576985802 3.1869575267065864
4 1 1.6342378098577378 1.3639035246973637 4.9823902703108934
5 1 0.1737088742029882 -0.5641670032297924 6.6807857258362288
6 1 1.820291768781744 1.0425629447281537 8.2071792062052431
7 1 -0.0135520479628965 3.2600341658575625 -0.0382412033726904
8 1 1.4559271520298718 4.714451882932603 1.637941432417869
9 1 0.034730765728256 3.1105006629400114 3.228087038491112
10 1 1.5186447438795476 4.5122797658180352 4.96637966087859
11 1 0.1341650332316791 2.6249798928798308 6.509263654231412
12 1 1.5986852144157486 4.2219991172116824 8.1371685852141056
13 1 -0.2273505786391381 6.5882802452978756 0.045893986344218
14 1 1.3997296249081 7.8566910752110514 1.561287208351579
15 1 -0.13935889788918 6.2092750146582478 3.261553892745436
16 1 1.5452781559919324 7.7398416112915438 4.9072833895886526
17 1 -0.0781157221687362 5.8815830146259884 6.5344961140083734
18 1 1.5227260540008448 7.3638712533245565 8.3186570488875198
19 1 3.3508202400366707 -0.1196997152107266 0.0869277149096155
20 1 4.8345265029911754 1.5230751912872014 1.5860703757089212
21 1 3.4902730131670698 -0.1372105768367087 3.3279563499974812
22 1 4.9899792711221184 1.267315320480847 4.8187629083650912
23 1 3.564064812091445 -0.3883981509354727 6.5337337980788224
24 1 4.986585986433214 0.9138350307911364 8.1291810547035652
25 1 3.0373842526528652 3.1429450089237903 -0.1204864025595983
26 1 4.7338323214422138 4.7951167214350062 1.6667820559339218
27 1 3.2731039424097022 3.0205550211485024 3.3717796413879842
28 1 4.9609980953487404 4.4300881902998919 4.9066010575843518
29 1 3.2912498460320001 2.7746351842081106 6.571608655324746
30 1 4.9494851736117918 4.1744087031866428 8.2945117780204498
31 1 3.0150761546204348 6.4330293174561293 -0.0490350834580799
32 1 4.5985547989974976 8.0307360568924615 1.7378917153053564
33 1 3.2237379863982549 6.1080064410863963 3.168357807990239
34 1 4.7308371127568432 7.662412310288934 5.0162758058529491
35 1 3.2300086492662539 6.0225558410227995 6.5364562139049518
36 1 4.9024596948238006 7.4493199481431267 8.1420634039482813
37 1 6.5600067735621534 -0.1226790265902795 -0.0050103510706492
38 1 8.246569771185035 1.4862539884397238 1.7728269164343466
39 1 6.6357670674803658 -0.2050076730494019 3.3432846274254837
40 1 8.3789988436718019 1.3739263709398411 4.8317282039026602
41 1 6.8418232116747788 -0.4865652715030794 6.7058374811894748
42 1 8.3401772490057518 0.9297458724641606 8.3172765855850415
43 1 6.5605742802531264 3.2034714248601128 -0.1113218246552437
44 1 8.1414577429285959 4.807723787272285 1.7398172542465796
45 1 6.4253723865875898 3.0180133071199915 3.3884261723988236
46 1 8.2669073581397204 4.53116363715632 5.0400339940200407
47 1 6.5118117999632954 2.7655117821752438 6.6739347570289428
48 1 8.188892558066863 4.286219601952487 8.1242694492196463
49 1 6.3735706282420903 6.5229508486424344 0.0963727302802816
50 1 7.967811594414914 7.8897835290644096 1.6062125004899818
51 1 6.492117592402213 6.2598496840577065 3.2628997950925576
52 1 7.9647582704684182 7.6870446815571808 4.884078176707246
53 1 6.3617772534315487 5.9287163612331008 6.5290670816499912
ITEM: TIMESTEP energy, energy_weight, force_weight, nsims
4 -86335.1606029056804318 1 1 254
ITEM: NUMBER OF ATOMS
53
ITEM: BOX BOUNDS xy xz yz pp pp pp
-0.7716982235591956 9.9168116931558678 0.0074914461067691
0.0 9.8213750298565366 -0.7716982235591956
0.0 9.8680479282201398 0.1434076826152946
ITEM: ATOMS id type x y z
1 1 -0.0172934975221701 -0.1204896159267333 -0.0155757268499027
2 1 1.4972194923607048 1.642033770693566 1.7268906249522536
3 1 -0.2156592255930914 0.0506309767903213 3.3739605838227198
4 1 1.3757067982226044 1.78879780206528 5.00254768892363
5 1 -0.6205337569563872 0.0308048079478078 6.6750930003255898
6 1 0.8987658972283738 1.7767711827715136 8.1606388034877782
7 1 0.0442554916499211 3.2261579267866956 0.0786996558371413
8 1 1.530210943683339 4.7664593706782422 1.6332783750859862
9 1 -0.2700948867048315 3.4002142056799065 3.4031305334985387
10 1 1.1716016285330409 4.8243128642963154 5.0515810322741626
11 1 -0.4989085397201992 3.3719507504969264 6.492887389769348
12 1 1.102783372711754 5.0029074219644247 8.2783359979324534
13 1 0.1360583842884547 6.4825079657353388 -0.0587188323920811
14 1 1.618156435439381 8.0049224090470439 1.7582325319770736
15 1 -0.3355045333663474 6.3996657824959256 3.2418234748446811
16 1 1.1721911432894805 8.0675215772827968 4.8951428684680894
17 1 -0.5394108302125378 6.4764375172370682 6.5744675287967374
18 1 0.9353873869812808 8.2778684248649892 8.1443298806768088
19 1 3.3987302940399382 -0.0043879999735881 -0.0403573556120419
20 1 4.9217281920464408 1.626945466903718 1.7497085121766772
21 1 3.0422298410568698 -0.0350826959531654 3.2149458727025881
22 1 4.6417218564734784 1.7839368769716274 4.989383712987384
23 1 2.738925478248568 0.0383815030993247 6.4938080786410516
24 1 4.2954529731710905 1.6501320705513984 8.1749563542268327
25 1 3.3475245491511601 3.2480010005144751 0.1235114482839817
26 1 4.7203622746914622 4.959802617040971 1.7372806926158764
27 1 3.0589745287139341 3.1958086132902341 3.3133500466427992
28 1 4.6468568709780086 4.7923746827087462 4.9955798602815138
29 1 2.9264528441659898 3.358749965756426 6.494749490413403
30 1 4.4337999949507072 4.9469807836949586 8.1566274420049556
31 1 3.4314265923943794 6.4610185835478592 -0.1194162083937704
32 1 4.7105115784071128 8.0558510805303474 1.728884957438547
33 1 2.9777531974257338 6.3821190959989078 3.2786806338565833
34 1 4.5413882212127934 8.1581599189162653 5.0458023034073989
35 1 2.9143090284921346 6.486977598275904 6.625799140509752
36 1 4.3279822351599515 8.1573196400075343 8.2996282849471737
37 1 6.5831119114707804 -0.105923184082704 -0.0523944004748848
38 1 8.0271639932351597 1.5504602476559216 1.5566322600227072
39 1 6.2659804907085573 0.1301277993786477 3.4014687542274263
40 1 7.86030567625762 1.571164931177318 4.857199237379291
41 1 6.0541033526748587 0.1443555991211174 6.4852416262345632
42 1 7.5830402644361802 1.6472677012922776 8.1030547966074416
43 1 6.602913383750451 3.1455728462231489 0.0386403152725316
44 1 8.1267520951030719 4.9573599009453302 1.6287972945217818
45 1 6.3527981394146549 3.2766353403116919 3.3715024530838003
46 1 7.8858706643579728 5.006264162193494 5.0512277561583332
47 1 6.0145798576047405 3.3588279828444914 6.5081759564245392
48 1 7.5836194125096776 4.9681563164923768 8.1858723888450289
49 1 6.5523617302878528 6.4520727905722054 0.1169659720931933
50 1 8.0755188811068859 8.06809765879526 1.7613222177833994
51 1 6.2294733080762281 6.4755963618202222 3.2745321065075599
52 1 7.808554581235879 8.0130802078516368 4.9765957096772038
53 1 6.0790081483549585 6.544632874312332 6.524757237358327
ITEM: TIMESTEP energy, energy_weight, force_weight, nsims
5 -86335.1415041694144758 1 1 254
ITEM: NUMBER OF ATOMS
53
ITEM: BOX BOUNDS xy xz yz pp pp pp
-0.8859123947694394 10.4971748754523358 -0.8859123947694394
0.0 10.504429466267542 0.5865316852807356
0.0 9.7507646942277512 0.8630683622160938
ITEM: ATOMS id type x y z
1 1 0.072999612864174 7.0253923155574665e-04 -0.0545428524701018
2 1 1.7031008231110996 1.7556881053678424 1.7047486182506344
3 1 0.2057160796062661 0.1840041696496234 3.2706658487848541
4 1 1.8345406946056356 2.042280641097574 4.8007236670795824
5 1 0.382112098068433 0.4656640636083666 6.5732722774785906
6 1 1.9013569313559536 2.210544880641395 8.2047321981344705
7 1 -0.3549167070490744 3.2442519832127972 -0.0664066078735687
8 1 1.308305501116053 4.9300552951799128 1.6643277982871828
9 1 0.0083470551446533 3.4949676362202308 3.2800392588854157
10 1 1.546456978163961 5.2757966471900133 4.780661468721208
11 1 0.078163318273261 3.7345478950572018 6.5839210876011558
12 1 1.675587903682402 5.5708320174814886 8.1489831760716918
13 1 -0.4659779982589236 6.3553478108685902 0.0093539085711727
14 1 1.0561637613604022 8.0949298990631622 1.5803181349111248
15 1 -0.3449382588991873 6.7900589008615056 3.3752506007422025
16 1 1.3039211851787511 8.4406537658216152 4.8723371832998686
17 1 -0.2896314319499148 7.0024708257439308 6.4943291114376526
18 1 1.4186045443124891 8.777361759590498 8.0346661858730357
19 1 3.4009614001268673 0.0480521329157092 0.0485110294302525
20 1 4.7746488693916334 1.8501547921806536 1.5008679291060876
21 1 3.3669123055873152 0.3104708508923022 3.1379501406846591
22 1 5.0538204856405402 1.969636740996166 4.9439058460025614
23 1 3.6604016905488348 0.6458962725812286 6.543704058619814
24 1 5.3413644692251277 2.3030466778259959 8.227123854178295
25 1 2.9230280262252108 3.1025592433766844 0.1084587307703647
26 1 4.6274558931491256 5.0131131224120269 1.5388929861841676
27 1 3.3055992521751256 3.4083082843548396 3.1969841953729219
28 1 4.7334452112269938 5.1480436725387966 4.9156413043834038
29 1 3.5182779255541412 3.890440245475848 6.5455489032999612
30 1 4.903194426651055 5.6103069512220368 8.1671010719500377
31 1 2.775168629583821 6.409602557469456 -0.082678683995296
32 1 4.2048762592906872 8.1046036517209537 1.5649333783765722
33 1 2.7958339862338808 6.7096736431695128 3.3246607082791404
34 1 4.5213284155357966 8.404321256719431 4.9698477554715544
35 1 2.982334428829315 6.98452001818597 6.4107660330845899
36 1 4.629118019586139 8.6610986036900802 8.0682926729975488
37 1 6.6709499975970542 0.0842902356183383 0.077747722289425
38 1 8.3206793736135065 1.7662227113323398 1.601687910814994
39 1 6.8755027801155384 0.2181092993919306 3.278723880728164
40 1 8.4378490696905129 2.0019541749933945 4.8104559053208904
41 1 7.0774327988845753 0.593251404158598 6.507506294845432
42 1 8.5112771575739536 2.4467564219238951 8.2511360873142987
43 1 6.2038401238573693 3.1493859069143553 0.020713549439948
44 1 7.9498362770983322 4.8849250609471158 1.5253491740238854
45 1 6.4866120846198046 3.4815714728112934 3.163374284548389
46 1 8.2123010735618909 5.291110096875749 4.9974034164974412
47 1 6.6223957297193358 3.7348969587357552 6.5713406509926644
48 1 8.3528548173976098 5.51537502541703 8.2022057750021951
49 1 6.1138033903104194 6.469976965274558 -0.0523840331667998
50 1 7.6443462026409854 8.0687037807127258 1.7090613814748914
51 1 6.2700364958179185 6.5942505136554638 3.1716780357619925
52 1 7.7571285250757134 8.4306372004847106 4.8031564828707918
53 1 6.449526375910537 7.0658680304377715 6.6112008019861976
ITEM: TIMESTEP energy, energy_weight, force_weight, nsims
6 -86334.9637663560574802 1 1 254
ITEM: NUMBER OF ATOMS
53
ITEM: BOX BOUNDS xy xz yz pp pp pp
-0.7924657511463632 10.4658799712400726 -0.7924657511463632
0.0 10.0165482929270002 0.6099537086150734
0.0 9.7156172963502688 0.128915515515135
ITEM: ATOMS id type x y z
1 1 -0.1106628455872115 -0.104756843111904 -0.0863912689991466
2 1 1.5407635463805486 1.716139939615712 1.6021888464769078
3 1 0.298480367622855 -0.0127390444118981 3.2160344905859777
4 1 1.8622261606661048 1.6389794601762886 4.7371076482556572
5 1 0.3702540886533618 0.0866449932588794 6.596401846807611
6 1 2.0344394775554373 1.837257633897155 8.0516769578994882
7 1 -0.311205108685828 3.3188584201217388 -0.1174151781498523
8 1 1.3455121479999468 4.9208680084261082 1.5211100770154058
9 1 0.024183697485074 3.2844729817090506 3.1487402389445367
10 1 1.683929757079163 4.8918800317946492 4.9320379074427096
11 1 0.2606384404906765 3.3855476687089952 6.511660289625385
12 1 1.8108368739484294 5.041219732566101 7.9824706727741246
13 1 -0.4258049443077005 6.719287936160482 0.0417858984298729
14 1 1.1815390663963441 8.1885780801919115 1.6277224602934464
15 1 -0.2165046636081125 6.7171843382160974 3.1317602545957053
16 1 1.3922996741318774 8.3636506050609097 4.7783261546354226
17 1 -0.2157743662476468 6.5820223659111656 6.3606718243462659
18 1 1.4815829956400016 8.3629738785172912 8.0155533212299286
19 1 3.2496078144778502 0.0895669738369286 0.0587085606366558
20 1 5.0059252576443267 1.5513456800041716 1.7453329223509554
21 1 3.382753668175162 0.0230448802462023 3.1246455080495883
22 1 5.226481831530232 1.6643105983655864 4.943000038438182
23 1 3.7709797278870322 0.1339033358243908 6.3584236305038893
24 1 5.3421152025045329 1.7026248934749122 8.0482667762284699
25 1 3.0470688107605515 3.395156797606675 0.0681676856363824
26 1 4.5558600118247182 5.0429045224850126 1.541109675219943
27 1 3.3245020822520797 3.2470458485220926 3.2658464604643651
28 1 4.8912444941002384 4.9741827307221512 4.7856128676076858
29 1 3.5294965490550094 3.3254689946190084 6.4272743240362056
30 1 5.0414713166203144 5.0365712044984914 8.0852036100657347
31 1 2.8312231465225342 6.4620617443365226 -0.1021383415130711
32 1 4.4301131654697628 8.2836660657967798 1.5324598611410022
33 1 2.870730458047229 6.7319136138853938 3.3335283652359298
34 1 4.5030742599927748 8.3668822387981337 4.75599772296495
35 1 3.0517790649883585 6.6432726272654348 6.5250076046671116
36 1 4.717241293444797 8.3960783256819927 8.1707476772366388
37 1 6.4868723195640144 0.1188945649396878 0.1133210170211703
38 1 8.2906816272338802 1.5969302625745614 1.6239906916899186
39 1 6.65577332837408 -0.0211055255295267 3.2542945914990047
40 1 8.394634185264378 1.6205257514929608 4.7344679150362384
41 1 7.0589593293155932 0.1554707041745961 6.3826767259607698
42 1 8.483663932428307 1.777085286328251 7.9772213247489088
43 1 6.3473628294957339 3.1705628636818668 -0.0539896853158185
44 1 7.8554449740530528 4.8540931100133272 1.5764201147217982
45 1 6.4896099349636378 3.411717183421668 3.319031692668045
46 1 8.1584207352515268 5.0674413019860802 4.9319203484734242
47 1 6.7006458740725376 3.451389667193682 6.5852279153550796
48 1 8.297513609807222 4.9745651805155494 8.0975968514889587
49 1 5.9531807010117052 6.4688762691953912 -0.1049723870784165
50 1 7.7771251998310894 8.3599781178954782 1.6596829549515196
51 1 6.3240698484521367 6.6017810672020768 3.2356551797159568
52 1 7.9182042505248412 8.3408620773365545 4.8285131473414502
53 1 6.5000483866736634 6.7964043790315998 6.5209095572915104
ITEM: TIMESTEP energy, energy_weight, force_weight, nsims
7 -86335.4536555944316644 1 1 254
ITEM: NUMBER OF ATOMS
53
ITEM: BOX BOUNDS xy xz yz pp pp pp
-0.5457642488557682 9.8400235973276882 0.0699828022153894
0.0 10.0508610776862124 -0.5457642488557682
0.0 9.759889722726177 0.3978165210953826
ITEM: ATOMS id type x y z
1 1 0.1106230027289475 -0.0222519761411255 0.0195197794454524
2 1 1.548571427015879 1.7648278156080746 1.7528391066206752
3 1 -0.1169963447687094 0.2517730150934709 3.3024304617435219
4 1 1.4620180778706378 1.706807670072917 4.8337220236362572
5 1 -0.3964788922126332 0.2228849298305852 6.3810432284095988
6 1 1.1262631225669968 1.846944639434541 8.0802966364966178
7 1 0.0240922114032557 3.1285760743145752 0.1182039764098813
8 1 1.5756347160640038 4.9682242316341006 1.5114389702077382
9 1 -0.1368786223435851 3.2830591969334249 3.1357881526397509
10 1 1.3678386600260102 4.9569598413405184 4.82455846317559
11 1 -0.3508586761611978 3.587201816455902 6.5566285244663042
12 1 1.28511643649707 5.2338135422436123 8.1919771026158284
13 1 0.0270349101229826 6.3736050948158791 -0.0909172767230835
14 1 1.4813509421235466 8.0608283482515351 1.6114339203619292
15 1 -0.1300182174467659 6.513464829448119 3.2528453420072117
16 1 1.4279862375640311 8.3385633079393404 4.849355414994121
17 1 -0.4263407181435326 6.7132507534875768 6.5852425691553922
18 1 1.2621129536639246 8.4055925409202601 8.083960499098529
19 1 3.3099906468879725 0.0136743714629677 -0.0726135795370828
20 1 4.9296258411570068 1.729303800336609 1.5722879786730468
21 1 3.139159787174171 0.170109664815646 3.1824423774923263
22 1 4.6243089276626482 1.7938462720530328 4.7568960756948462
23 1 2.8084464375648334 0.3131880689331417 6.5004232715310684
24 1 4.4476942609352914 1.924961890188692 8.1030410835064579
25 1 3.2804166002511441 3.1289752250803145 -0.0712911144796534
26 1 4.9135068736374698 4.8849061617381162 1.6758960400025908
27 1 3.0081512684816825 3.4681844962803102 3.1983851573544002
28 1 4.6095435176626758 4.9019343765439736 4.7988577455687356
29 1 2.9191258935571818 3.561812304534926 6.5843114756758442
30 1 4.5613198492744696 5.241052574577445 8.0683837151010582
31 1 3.3631334640148412 6.3908431850813488 -0.0587642960205343
32 1 4.858214104659453 8.179786184456038 1.5177340990788966
33 1 3.0653402555646072 6.5632095224801096 3.146479135842025
34 1 4.601963432064772 8.3486035414812445 4.9919025083504254
35 1 3.0439620747978213 6.7431768068156926 6.5458272545101624
36 1 4.5634230025999232 8.3328843156468722 8.0580626317192756
37 1 6.542107395877875 0.034718346360324 0.1073812346963502
38 1 8.0021673505030186 1.5889923569445742 1.7464580907199568
39 1 6.4127854377954048 0.1724395631628008 3.2311012836939499
40 1 7.881709721453082 1.8855396677396804 4.7847488489855624
41 1 6.2293952766813048 0.394506186375225 6.6110652853837816
42 1 7.618301485413693 2.0248376064592173 8.1060607933866695
43 1 6.4465891831918754 3.3307603082600408 0.0159730355202137
44 1 8.1260750964567539 4.946973649127158 1.654945460723787
45 1 6.2718339884279564 3.2918233922150377 3.169303613947593
46 1 7.8482810119426052 5.018132400974852 4.9238887648396626
47 1 6.1496928788114671 3.4297412737484217 6.5861111993407144
48 1 7.8268649120471618 5.2517912393979094 8.0891683762545767
49 1 6.495862989783582 6.45168617054415 0.1127638138784337
50 1 8.0727048707231042 8.1898951990714633 1.5331361810503306
51 1 6.447451494999001 6.6276442589474414 3.3363812141329978
52 1 8.007842477808385 8.2145438481863629 4.8406866809423956
53 1 6.1406063192117051 6.6273465588559608 6.5651879477531354
ITEM: TIMESTEP energy, energy_weight, force_weight, nsims
8 -86334.9072229455500704 1 1 254
ITEM: NUMBER OF ATOMS
53
ITEM: BOX BOUNDS xy xz yz pp pp pp
-0.932819444858039 9.8386221665827006 -0.5194989276398998
-0.917638450855002 9.7406688442922036 -0.4133205172181393
0.0 9.8313711020459298 -0.917638450855002
ITEM: ATOMS id type x y z
1 1 -0.052702538530554 0.053212788691926 0.0313964836143837
2 1 1.583273844034497 1.5134481041913984 1.5792544318802664
3 1 -0.1497862539391995 -0.2212142225618835 3.2115510771302902
4 1 1.3922681601861091 1.1312629219910739 4.930089492824572
5 1 -0.3157954975097938 -0.5299520022241114 6.6279672821479042
6 1 1.1366104461693289 0.7334238855979646 8.2418379716784749
7 1 -0.2265376023077814 3.2760105842025076 -0.0613487388138768
8 1 1.2223400600283003 4.6985647808043654 1.5974778613550186
9 1 -0.2533782523973778 2.9011809506668178 3.3578585924596074
10 1 1.1704920898449085 4.380944596889421 4.9788177005547514
11 1 -0.3242785557998966 2.6594857318087266 6.513987281276335
12 1 1.134255917643586 4.1438250047102416 8.1144873061081206
13 1 -0.2265738418867021 6.5024488899751872 -0.1113215981255762
14 1 1.0695352570623762 7.883582172432611 1.7592363595083108
15 1 -0.3761702957012313 6.248639381837779 3.2614551168442758
16 1 1.0775331898985194 7.582053849064649 4.9812165551036518