ITEM: TIMESTEP energy, energy_weight, force_weight, nsims
0 -87947.840120509034028 1 1 678
ITEM: NUMBER OF ATOMS
54
ITEM: BOX BOUNDS xy xz yz pp pp pp
-0.584230689619841 9.5751977320304996 -0.1671063508193963
-0.4244685154609121 9.57374230197523 -0.4171243388004447
0.0 23.8933643334472556 -0.4244685154609121
ITEM: ATOMS id type x y z
1 1 1.4281924295114743 1.3872235805496545 7.9369742230503756
2 1 4.6723502028803968 1.4064552545281319 7.7009364554731166
3 1 7.7722617855140462 1.3577974108703159 8.122914773629697
4 1 1.3005521232804312 4.6074606940036684 8.0711760825020491
5 1 4.5106052277288598 4.6612012530897308 7.8339340893623852
6 1 7.6636915376105518 4.7263049105934726 8.036977510131587
7 1 1.2489792812293932 7.8968243352237728 7.8041462320478764
8 1 4.5573499636747138 7.923195002778682 8.0350254222655426
9 1 7.6633525825461542 7.823183732680854 7.6830188215594656
10 1 -0.202606522375498 -0.0773842436868789 9.3699524662481082
11 1 3.0038133096840505 -0.2644278205165069 9.524965446034214
12 1 6.2507739992382057 -0.1978985459924945 9.7319918906378008
13 1 -0.2157361066419761 3.1140804053040507 9.6464536463240584
14 1 2.9951121713334796 2.997292395712969 9.4095413816121969
15 1 6.0794057452671577 3.0092215400796638 9.6334962748460314
16 1 -0.2292838470380065 6.1311977340528818 9.4332985537689442
17 1 2.927901846332754 6.2443180643552401 9.6199296225774998
18 1 6.1201547942321728 6.1925520225772566 9.7084640947786536
19 1 1.467987997777346 1.3835317807958858 11.0127932963958077
20 1 4.4883909347831832 1.3737389601146459 11.2797586347662797
21 1 7.802527428615929 1.3825275478153949 11.1052128296375816
22 1 1.3498486867546091 4.5798600703001036 10.9286480352227056
23 1 4.4546088309088852 4.5583208206422122 11.2808911802356864
24 1 7.7153028446882246 4.5641955782473822 11.0967832507007405
25 1 1.2493639201424281 7.8527957865872366 11.0767032673149117
26 1 4.4443512072641598 7.8169224979611922 11.0632035164665155
27 1 7.7249415754955244 7.8509656332159032 10.9205625207322682
28 1 -0.2918075593322955 -0.3202895396429541 12.6594021100988918
29 1 2.9475492923802844 -0.3048909859971213 12.7189969394193768
30 1 6.1195693625934844 -0.2679383576924284 12.6367655367293832
31 1 -0.227772555217888 2.90897807898209 12.8675109241067888
32 1 2.9456063125466944 2.9489036157338106 12.7356314996683242
33 1 6.0613409322980978 3.0133127410844684 12.7412440509502486
34 1 -0.3177627910674984 6.1761738430160316 12.913417245000634
35 1 2.7976983563304678 6.2448394417444773 12.97001106776084
36 1 6.1228381884416416 6.2299082329668902 12.9103541156930888
37 1 1.2927933955571458 1.2463430530756561 14.3226430947144881
38 1 4.4232450946296247 1.3693006725031465 14.5825503332608638
39 1 7.6848647198631444 1.3251855707281317 14.5224226819157406
40 1 1.2909002573021029 4.4410065360957116 14.2967498557863309
41 1 4.4127527502447235 4.4421144327732183 14.2332006746686624
42 1 7.6512065477443656 4.5681039258873746 14.4575474190775638
43 1 1.1512153440628232 7.6239960961139844 14.5627116728547978
44 1 4.3928937932968175 7.6853586396557018 14.5884376582326248
45 1 7.5674747430051382 7.7668467175223954 14.387305706610098
46 1 -0.3197894923433632 -0.2997499311239446 16.0854955152362287
47 1 2.8919618353140466 -0.2296694570771704 16.0169621783186003
48 1 6.1176702099949258 -0.2208187206765389 16.1033056290103822
49 1 -0.3919685204304581 2.9762302471171868 15.8897276239065608
50 1 2.9027917267314768 2.862144886289081 15.859433227268184
51 1 6.031699772208345 2.9246401973279746 15.851197184582441
52 1 -0.4895891450418914 6.1032860286232795 16.2094805720989186
53 1 2.737727172271728 6.0375668291656472 16.1963989551263552
54 1 5.943077392719351 6.0091306648509306 15.9148873365496808
ITEM: TIMESTEP energy, energy_weight, force_weight, nsims
1 -87947.406642434637438 1 1 678
ITEM: NUMBER OF ATOMS
54
ITEM: BOX BOUNDS xy xz yz pp pp pp
-0.468064390734847 9.5751977320304996 -0.1336889107346099
-0.339076902086664 9.5742689378504924 -0.3343754800002371
0.0 23.944323535777123 -0.339076902086664
ITEM: ATOMS id type x y z
1 1 1.4359364434133284 1.4141190837938189 8.0505389093078001
2 1 4.604794941835575 1.5108731958192972 7.922661855032631
3 1 7.8532361748101708 1.5602077756416638 8.0028944943363136
4 1 1.3254222712074657 4.6018916959347216 7.9541510349145304
5 1 4.5260788571028296 4.6181976738830972 7.999987653459069
6 1 7.8795755469621246 4.761943165443146 7.896253660605022
7 1 1.340641606967963 7.8485434584015996 7.7632932264432046
8 1 4.486037445643806 7.8024487930820596 7.8002297399294926
9 1 7.7975618764829644 7.8858910008023146 8.0605572142751694
10 1 -0.1390652152206042 -0.0822352186696062 9.7395307861715086
11 1 3.1313554500715983 -0.229013585582544 9.6968715793601686
12 1 6.2693700817093419 -0.1342686835731506 9.4721469196798402
13 1 -0.1729188864246295 2.9831259840055422 9.4104687366840327
14 1 3.0783855797849755 3.098055624832142 9.4809775861998364
15 1 6.1896631014192503 3.068174473123011 9.4283671185270244
16 1 -0.3080871891075741 6.1548279375595003 9.5878506798694244
17 1 3.0594196436522525 6.253391320765692 9.4025240101348597
18 1 6.1418713532106031 6.3157189997945604 9.5525399859512118
19 1 1.4383779581583909 1.5195008033682876 11.0834059446170006
20 1 4.5273786099088352 1.4091462888041495 11.3653766930066649
21 1 7.8174759569853194 1.4358891646335808 11.3773416714774918
22 1 1.3624763551934729 4.5556214322876842 10.9357269347777404
23 1 4.576458554547446 4.677505202000086 11.3673161832130632
24 1 7.7370518688475798 4.6030526717528044 11.2759853499505472
25 1 1.40165830477967 7.7991842191282244 11.0014708639099243
26 1 4.4432428528826256 7.9162654502206422 11.0045548927813304
27 1 7.7712833967448436 7.8657136903488212 11.1365024820575886
28 1 -0.0835584270283914 -0.2585111252841267 12.680506691047457
29 1 3.0278646020625311 -0.266978231468056 13.0173123347664035
30 1 6.1278322751244137 -0.1173745995519724 12.6547928820023846
31 1 -0.1315464907400303 3.037734040143854 12.8832983503690138
32 1 2.994927553301856 3.0701528711917039 12.8253315375212474
33 1 6.231585396494598 2.9707015083673492 12.6134817406061082
34 1 -0.318949372473367 6.1259304516345621 12.5602128040360644
35 1 2.8571052372611878 6.1114995173377089 12.9941749349337794
36 1 6.0366617297814393 6.2552352702868293 12.8564447915236394
37 1 1.3273328979665455 1.4449452637240621 14.5484608364499142
38 1 4.5560472616599306 1.4199791466360301 14.6050005676149458
39 1 7.710798959973749 1.4254650081445051 14.2219368852572306
40 1 1.3340951387829023 4.6303868993253428 14.5835488481592392
41 1 4.4927164848486712 4.6038811028284768 14.2363322125669356
42 1 7.7438658576049876 4.5564312113272516 14.3251584695876098
43 1 1.3751723093340189 7.8532592849606724 14.5457431557286032
44 1 4.54364273948329 7.7563164206242758 14.2369380039523925
45 1 7.6415477892744344 7.7985378641851578 14.2341748290163644
46 1 -0.2945276078247792 -0.2531665890406305 15.8885815249649962
47 1 3.0426017585892708 -0.186698252492114 16.0216425252856638
48 1 6.0987231086400007 -0.2101574790800965 16.0261296915162674
49 1 -0.2435588671042409 2.925690532298327 16.170195502933975
50 1 2.9376308209839204 2.9875244376636462 16.0473874619513275
51 1 6.156244443655611 2.8733813616101972 15.7797593633595952
52 1 -0.2253506439905844 6.2071573913516431 15.8961646922287746
53 1 2.7920712582578152 6.2184842948755685 15.8208765557352322
54 1 6.160449525852723 6.0786693221075456 16.2125410391069984
ITEM: TIMESTEP energy, energy_weight, force_weight, nsims
2 -87947.0560293162002388 1 1 678
ITEM: NUMBER OF ATOMS
54
ITEM: BOX BOUNDS xy xz yz pp pp pp
-0.3515533847314998 9.5751977320304996 -0.1002618954520914
-0.2539342438534488 9.574671096155237 -0.2512914892794084
0.0 23.9946795006498696 -0.2539342438534488
ITEM: ATOMS id type x y z
1 1 1.4080847056872004 1.5850488151830344 7.9681723643194102
2 1 4.6356645835452356 1.4438538959874725 8.0838075237689413
3 1 7.8939404037175828 1.4863554487423174 8.1683479780535802
4 1 1.4026686772716197 4.6740632743293498 7.7793030435659434
5 1 4.6273417588766632 4.657789483040463 8.0092584540283731
6 1 7.7844689410435538 4.6604046020857562 8.1501888046074882
7 1 1.4914812982943754 7.801791464074773 7.7321606967510172
8 1 4.591838110850648 7.9031423448738272 8.0813744632675757
9 1 7.7481028564812294 7.9637140193420564 8.1828479628758224
10 1 -0.0809073349945537 -0.0658981227572217 9.4990425143326718
11 1 3.0929437798120421 -0.1656173263217252 9.708573653604148
12 1 6.3428200691871633 -0.1439464166427033 9.7309582901102996
13 1 -0.0395402953557543 3.1700903580369051 9.5441405144541438
14 1 3.0254409057483498 3.1190975698727392 9.6310852356247488
15 1 6.2810284296044872 3.0441930104075881 9.4335826291869491
16 1 -0.1203925199330313 6.2117613003999575 9.7730401590185424
17 1 3.1095583402267528 6.3309841383736121 9.6512647610847928
18 1 6.2004605080371329 6.3719228646165158 9.7433371452646878
19 1 1.4166206340826311 1.4246373377167952 11.2214190003765193
20 1 4.6721513951947298 1.5310082811071798 11.0543896369045456
21 1 7.789429829871379 1.4111373744761493 11.3884915542715941
22 1 1.506212332157217 4.746434553159908 11.2726188474950089
23 1 4.575076312944054 4.602136227734646 11.1712341282009113
24 1 7.8051435077356564 4.6891472030592532 10.9542622388162858
25 1 1.3377708271481037 7.8093199165885538 11.2752630611759806
26 1 4.6114755914709242 7.8549375663247308 11.3214864117660295
27 1 7.7045961819339076 7.8982060823495904 11.0531803050577135
28 1 -0.226938360022554 -0.06193904303859 12.6446922085729662
29 1 3.085410601322494 -0.2039401171667051 12.7445820593341744
30 1 6.2813663370187323 -0.051062524453726 12.9744942793735004
31 1 -0.1433885736899393 3.0996180430298832 12.748037293182268
32 1 2.9346894657003416 3.1123966478528118 12.5829011099228954
33 1 6.1397648196045651 3.0859241858843931 12.7463336709377196
34 1 -0.1406595713927131 6.3072402146347155 12.9922119507167792
35 1 3.0461436337777785 6.3142149133030756 12.8392650646437404
36 1 6.1738935198909699 6.1920295086005579 13.0029447708574217
37 1 1.4016370266527072 1.4814005144819656 14.2287561635712194
38 1 4.5837700563828214 1.5228804251842918 14.3274126878060937
39 1 7.7873819829701364 1.4472458616734632 14.4990778233575918
40 1 1.3881586689992955 4.5599958733463054 14.2089749497908837
41 1 4.5303364143920418 4.6605729837427986 14.6212611308428518
42 1 7.855534960828627 4.667393096608043 14.5368430494236662
43 1 1.385140766146594 7.8702155737224926 14.3670063084501152
44 1 4.4924837862992916 7.8650523058335606 14.2558725508749085
45 1 7.6972313846034926 7.8893494901707166 14.641239100995092
46 1 -0.1982358555505447 -0.1935661074483694 16.179120496358447
47 1 3.0132271979014593 -0.2203123207866992 16.2730620660714394
48 1 6.1530420583340622 -0.2226062521952258 15.878133636170242
49 1 -0.230141744421191 3.0152254202182398 16.1947338343095204
50 1 2.9112792686394532 3.0491278249608476 15.8274664709366704
51 1 6.2624780729673146 3.0867783484358489 16.1974956219200408
52 1 -0.1917648449314414 6.1928262582424756 16.0164869581709901
53 1 2.9325135878363202 6.2541039119197963 16.1253484195974863
54 1 6.1563752048309048 6.1401718092419335 15.8952970304170568
ITEM: TIMESTEP energy, energy_weight, force_weight, nsims
3 -87948.3285695937934188 1 1 678
ITEM: NUMBER OF ATOMS
54
ITEM: BOX BOUNDS xy xz yz pp pp pp
-0.2347072468075317 9.5751977320304996 -0.0668444553673049
-0.1690405407612664 9.5749679272849306 -0.1678627914402267
0.0 24.0444513784609661 -0.1690405407612664
ITEM: ATOMS id type x y z
1 1 1.6154597227862424 1.5303328836404906 8.1430694283246545
2 1 4.7307423754331258 1.5769414888393246 7.8631126675898182
3 1 7.8507264939748814 1.5306457770552222 7.8971307574000652
4 1 1.5221190214167504 4.8138874527767346 7.8191570060248532
5 1 4.6696850114263064 4.6574552383346842 7.8244996831211476
6 1 7.9617719766292376 4.7567272753171794 7.7620249851044934
7 1 1.5252847602226842 7.9956097832932942 8.1824253863409187
8 1 4.7600624262514454 7.9787359198998784 7.893949676482695
9 1 7.8100411455333196 7.8602309150003036 8.0563531144282337
10 1 -0.0889318910472989 -0.0300965094135973 9.7068243681742406
11 1 3.0955182360001361 -0.1217716316561129 9.4236167976130396
12 1 6.286076227840919 -0.1160203742752819 9.6129884922246608
13 1 -0.0622670872149636 3.1139366977068961 9.4112002429212005
14 1 3.1076030289393355 3.1123205712943678 9.8207205299088702
15 1 6.3482270036506208 3.0629808511008272 9.3715365159272928
16 1 -0.0294400952848553 6.2866388414061483 9.7392747597546112
17 1 3.1732643539830057 6.358855633354958 9.8137067634417754
18 1 6.1925025495873261 6.2648243894371412 9.4837447571751544
19 1 1.601414566249631 1.544840180589292 11.2259431884848535
20 1 4.759578881948773 1.4244532434504029 11.1849353766588884
21 1 7.929146804978509 1.5993819204229082 10.9851716701614954
22 1 1.4092383887866924 4.7647245373856074 11.1454832408371107
23 1 4.7576480946453392 4.7238754045453018 11.3660405888865963
24 1 7.7861800551210116 4.7444282710305502 11.1852816167587381
25 1 1.5299476545678044 7.8925333512457928 11.3026522017175584
26 1 4.6042474187819718 7.912653532405188 11.4362167246797704
27 1 7.762834155068604 7.9427981769448514 11.4367937915128515
28 1 -0.1316447902705212 -0.1641050057069341 12.8292488464068716
29 1 3.040804116695901 -0.1114503098510932 12.9834170597552862
30 1 6.2723557959377248 -0.0100501479327953 12.900432444712802
31 1 -0.1947393142113434 3.0744837732450217 12.8069836844304152
32 1 3.0359073243910686 3.0616285069770579 12.7470456760341886
33 1 6.210503831312856 3.0433168727553146 12.7713546163778116
34 1 -0.1798938893420248 6.3705817651530152 12.7055834240771706
35 1 3.0106964630553272 6.2018557588728083 12.8685735466363448
36 1 6.1884029935196807 6.2093160313204035 12.6195499725999004
37 1 1.4002408817913512 1.554703301613925 14.474338951934378
38 1 4.585001526398962 1.5811753194023264 14.3083023973855515
39 1 7.9596547159473748 1.4816362852411976 14.6921768725329596
40 1 1.4293111385951396 4.7344458663711864 14.5861432463990842
41 1 4.6434577504090148 4.6551388473605498 14.5337696224065206
42 1 7.7728023333080376 4.5978362303798308 14.4432374540763409
43 1 1.460452463073889 7.9162402860848982 14.3403079666154234
44 1 4.6836979160484572 7.9618764920400916 14.4480391310166194
45 1 7.809679659081672 7.8567924788124346 14.467880612294124
46 1 -0.1028218942473362 -0.1400095496037382 16.1405521079978627
47 1 3.0820163572115007 -0.1049307858003937 15.9998752363179016
48 1 6.2953776888243649 -0.1655704726204332 16.0655863174900979
49 1 -0.0571955392641878 3.1076779279648577 16.3004356874389416
50 1 2.9773737570641266 3.040777417540101 16.0415586972276039
51 1 6.2943157545916178 3.1473618766599088 16.1991724804585502
52 1 -0.2181029211847514 6.3532194752493627 15.9993246183813352
53 1 2.9827026064440644 6.2544784681103618 16.0937231344931711
54 1 6.2365078441543069 6.2193669203964843 15.9668093067822436
ITEM: TIMESTEP energy, energy_weight, force_weight, nsims
4 -87946.0546082626388016 1 1 678
ITEM: NUMBER OF ATOMS
54
ITEM: BOX BOUNDS xy xz yz pp pp pp
-0.1175164017652103 9.5751977320304996 -0.0334174400847864
-0.0843957928101168 9.5751402808441082 -0.0840989616804239
0.0 24.0936200188149385 -0.0843957928101168
ITEM: ATOMS id type x y z
1 1 1.5369674784926604 1.5851717532676226 7.7439713694013418
2 1 4.7599756739411916 1.5427777866282626 7.7800636121895268
3 1 7.9971325917945136 1.5733207852044822 7.9226930239769074
4 1 1.4727611764405804 4.681553821004215 8.1088957475683152
5 1 4.6568472329270056 4.7512461200892462 7.856418703391153
6 1 7.9860777958337498 4.8412932304350278 7.8912436217663472
7 1 1.4512109029772292 7.8960375795058574 7.8579534669863512
8 1 4.6412613713926634 7.9079538531119918 8.0143090140984512
9 1 7.8461332526380812 7.9089527112026934 8.2017814714648498
10 1 -0.0601998116984404 0.0199593884296854 9.6800310715472282
11 1 3.2534519098230566 0.0377713804114278 9.6375708849880724
12 1 6.4461665907933048 -0.0309853733070164 9.3690185775343569
13 1 0.0263992518201023 3.1747467320477174 9.3774826662469675
14 1 3.2123872606517305 3.2439290981232527 9.3963262864636796
15 1 6.2550505531097773 3.1799243375437749 9.7814073871383958
16 1 -0.1099215636433664 6.3957467494538021 9.4372372532556295
17 1 3.1530116052642812 6.3758795755040012 9.5913280000859604
18 1 6.3668908821506989 6.3776980904733627 9.5229334409385516
19 1 1.5586262953681682 1.5197965032237968 11.4350850439397682
20 1 4.7329158268951242 1.5614985900340996 11.2053427396123606
21 1 7.9871027387748236 1.5109246964205422 11.4111552605370808
22 1 1.5700957430117598 4.7252496530273708 11.4149379588800315
23 1 4.778428578926846 4.824909967916475 11.0228504335038497
24 1 7.990899121988459 4.7597038599794478 11.3960822918533111
25 1 1.4404184031186762 7.9195665888192792 11.4443610876470121
26 1 4.627443899598264 7.9204269818140158 11.3611055836719963
27 1 7.9189542356848702 7.9994494134466798 11.3420403021511085
28 1 -0.1341813111520268 0.0419574098331753 13.0094633691732167
29 1 3.2214700788948538 -0.0961380814061586 12.8908119280285582
30 1 6.3233152317683628 -0.0496060609119379 12.645148559592716
31 1 -0.0375998229811091 3.1604155670234575 12.9715641048836154
32 1 3.0890721877137377 3.1743782768054603 13.0144121987250792
33 1 6.3955482738838701 3.1484314245766627 12.9488462305678808
34 1 -0.123383204500056 6.3720207150022503 13.0916563445054006
35 1 3.086499665309598 6.347288825426384 12.9927761279481846
36 1 6.3644080613278291 6.283785400654045 13.0917695845194881
37 1 1.5231540350643784 1.5944574929809532 14.4469658390797769
38 1 4.6568625450891394 1.4553190894243324 14.6777128473619688
39 1 7.8637419354718832 1.5819663997314872 14.2655505177861049
40 1 1.4985835398116182 4.717636519378929 14.3570364023595474
41 1 4.6675126717012594 4.6718254583977732 14.2809752533221506
42 1 7.9072006212519498 4.7799876494688514 14.3254038886368438
43 1 1.4423869967172718 7.8796747682844544 14.708998412956401
44 1 4.7160979790854062 7.833671060301767 14.4263344722576648
45 1 7.8119972006757204 7.9771029668927928 14.3590506289931206
46 1 -0.0672591631521725 -0.1370889449829925 16.178967035838312
47 1 3.2058082012206066 0.0266645187279502 16.1416845682211978
48 1 6.4057004485417064 -0.0505325127821801 16.0122102729640901
49 1 -0.0019180238904141 3.040303692275232 16.2737898867843605
50 1 3.0664948444022393 3.2264262278686196 15.8733250097276316
51 1 6.2497912404751501 3.0676504079863038 16.2729369726356943
52 1 -0.1626499152791414 6.2986256732521362 16.1881250208074619
53 1 3.1620358107384554 6.3112600516448625 16.1867637312763968
54 1 6.2930329255291673 6.3676229465385932 16.2324741471760952
ITEM: TIMESTEP energy, energy_weight, force_weight, nsims
5 -87947.1660333785248512 1 1 678
ITEM: NUMBER OF ATOMS
54
ITEM: BOX BOUNDS pp pp pp
0.0 9.5751977320304996
0.0 9.5751977320304996
0.0 24.1421949969095344
ITEM: ATOMS id type x y z
1 1 1.6728291746557492 1.594863127122691 8.212655680756189
2 1 4.766467362140432 1.621050335400021 8.1397583229630204
3 1 8.0069919553937812 1.5967877418668288 7.882445980246959
4 1 1.5227915713134704 4.7392747581012378 7.891079229177854
5 1 4.7091981045051572 4.794674937139221 8.0962033889690961
6 1 8.0604282613769236 4.7701796663011394 7.89807080884896
7 1 1.5581374562214878 7.8965248141988918 8.1486716213558808
8 1 4.7618023258053866 8.0523956279995232 7.7642964921515834
9 1 8.0201683849928287 7.8983287814516068 7.9477409608356008
10 1 -0.0450139620580486 -0.0310973696743155 9.5196706619378784
11 1 3.138376383848049 0.0484878437952292 9.4828803709820876
12 1 6.4279556726023639 -0.0665303888816943 9.4984255303405956
13 1 -0.0197028843731992 3.100598398716095 9.665156357428252
14 1 3.2261301985027884 3.2149205145179005 9.5563426561381846
15 1 6.431038886272078 3.276958220623726 9.7021108153100234
16 1 -0.0608034631181669 6.4207302283937731 9.4307332297887623
17 1 3.183243845380797 6.445477326932207 9.3890541443460976
18 1 6.4535645389366794 6.4353122970198831 9.5557873856532538
19 1 1.5968404054543552 1.6890390268963036 11.2545505223912912
20 1 4.8607897624393442 1.580810566931163 11.2392805840557486
21 1 8.0435969788035617 1.6259786896726972 11.4697057642037522
22 1 1.6631706727034502 4.7460386777791444 11.0385575464124432
23 1 4.8175271040464836 4.7156019967483394 11.488232484644378
24 1 8.0000365317612339 4.8345087172242406 11.4597978073770204
25 1 1.5003540104680032 7.8933554237495898 11.4342070806802951
26 1 4.8559226894321528 7.9646169178306802 11.0834475437896956
27 1 7.89702942711937 7.9285557656520806 11.3811183938820921
28 1 0.0280917151062311 -0.0258999523453693 12.7815371132873246
29 1 3.2025043556187765 -0.0873612315477267 13.1243345542679393
30 1 6.3793376061179794 -0.0682836075864291 12.9232131704071876
31 1 -0.0520383271142662 3.1541304566765582 12.9318367624600796
32 1 3.262910448031064 3.1364843247761996 12.7298897155304314
33 1 6.3575549887973821 3.231956706322729 12.9026198780748232
34 1 0.0323383153003866 6.4778999039726354 12.7938882602477406
35 1 3.1395866888413773 6.3924441367735821 12.9351490716136598
36 1 6.3009531224440307 6.4632249559285252 12.8925477543221128
37 1 1.5709021523180576 1.59305437227111 14.4073739215981984
38 1 4.8528662863160896 1.5628838817372558 14.5274330573178272
39 1 8.0214438013307348 1.6094078524776452 14.5976844305393368
40 1 1.567102713857988 4.7406899723260328 14.4657497491007234
41 1 4.8110092669502906 4.7515511191134748 14.5762268476260798
42 1 7.92532700897684 4.7131526611684862 14.4912825345294554
43 1 1.6412099567050382 7.9008853592460584 14.3201578279523645
44 1 4.8631797317932596 7.9665760032866544 14.489116979638233
45 1 8.0337460153768472 8.0038742710122328 14.2837948538480184
46 1 0.0222316940942284 0.0120369810689355 15.9059789480558606
47 1 3.2586715079950946 -0.075832693478362 16.3340900777165565
48 1 6.3013160224380753 0.019975777508562 16.2389143023802412
49 1 -0.0414079425921659 3.1293670803019809 16.3688958802435991
50 1 3.2411105953545505 3.1075729727441064 15.9133857734809112
51 1 6.4449229229835217 3.2426656074662321 15.911553380880644
52 1 -0.0487760572469634 6.3163490828773625 16.0333942105910481
53 1 3.0986153752657919 6.3486625026636459 16.1908423637023944
54 1 6.4490986667144608 6.3475402894894524 15.9715322501309682
ITEM: TIMESTEP energy, energy_weight, force_weight, nsims
6 -87947.542489533173010 1 1 678
ITEM: NUMBER OF ATOMS
54
ITEM: BOX BOUNDS xy xz yz pp pp pp
0.0 9.693049265716331 0.0334174400847864
0.0 9.659287118513193 0.0844340936010449
0.0 24.1901858879424694 0.084146837669084
ITEM: ATOMS id type x y z
1 1 1.5688016514274684 1.7164362692424876 7.7740847044586774
2 1 4.8361281094609502 1.5594100445209146 8.0483409369632266
3 1 8.0447164269555653 1.5991230869410432 8.1386695100873929
4 1 1.5613653161392452 4.7369491999036528 7.9696526812883378
5 1 4.8441224301090654 4.733108758752084 7.955932007852697
6 1 8.0482380581317639 4.8140566752654036 7.8005923101546868
7 1 1.604033199579207 7.9471415736765642 8.1712028910880861
8 1 4.8162801209307702 7.9640685973019468 8.1643473924074428
9 1 8.07219855271725 7.9342405125585262 7.8520375784825732
10 1 0.076732060827482 0.0565316930670878 9.5348254407587022
11 1 3.207688513686918 0.109880075622438 9.777196589244353
12 1 6.4945345986879986 0.0130499843713578 9.7076788330395836
13 1 -0.0367034983837458 3.1895687300955937 9.4812611121470312
14 1 3.3155686501998361 3.1371585903185486 9.8714076872035364
15 1 6.3836418391879031 3.2282380219511566 9.4884431783371622
16 1 0.0314757579202936 6.4760330071645784 9.6561585751354446
17 1 3.2540060667919626 6.4168082012854262 9.8414989413716826
18 1 6.4228629596910132 6.4188203179705568 9.7009491233255592
19 1 1.6848360834718494 1.6653095397625024 11.4132490123849753
20 1 4.7915296194091956 1.641015490887039 11.0837593284424898
21 1 8.1108587595351978 1.7305644685342314 11.2848015443385919
22 1 1.6736092857590358 4.8647188265405204 11.1579893328582305
23 1 4.8875186558957414 4.8879246634740214 11.4642201530694622
24 1 8.0207094345434591 4.767813263533041 11.456271257986682
25 1 1.5989219173030522 7.9234967222459822 11.0534732157107865
26 1 4.9364824028422242 8.0543086560209467 11.4581653495417086
27 1 8.07129966118843 8.0492094078150007 11.2306590702841955
28 1 0.0360570575023232 0.130889723723121 12.707051428527226
29 1 3.243534886167863 -0.0423087698295532 13.0116276400237201
30 1 6.4185715017541529 -0.0159259272383737 12.9545049350679324
31 1 -0.0164594067813051 3.2019781114705994 12.8675363787635996
32 1 3.1899974960076731 3.1728668686198787 13.0382150733331557
33 1 6.4206295677775129 3.223290246257045 12.7276421147550406
34 1 0.1294586391194016 6.3401236384599278 12.776029743586694
35 1 3.1852602521432658 6.4487878724473484 12.9166303610231842
36 1 6.4924393810544698 6.3959390541075418 12.714098029676384
37 1 1.7093486268310198 1.6221851855601546 14.5881697868614158
38 1 4.8919391014974352 1.5564473034918532 14.6105360327334086
39 1 7.9409579110137738 1.6105935077560266 14.601929164594477
40 1 1.596244363901961 4.793464068951912 14.7748212611727806
41 1 4.9295774342184808 4.7701332207129684 14.7296606031385818
42 1 8.0039200161861803 4.7869252448205116 14.6019678688919008
43 1 1.6575370313677218 8.1099648268863831 14.358244489015112
44 1 4.831230880075152 8.0031948718137969 14.5659414250489886
45 1 7.9686498386150672 8.0404463460229891 14.7047737398970658
46 1 0.0584407752337864 0.0714457283885798 15.9690205869214238
47 1 3.2091504516306531 0.0188144511032327 16.3812020023032545
48 1 6.4827088079676712 0.0929089443025669 16.0850609086258878
49 1 -0.022977276699361 3.2750637580508535 16.0780675258856824
50 1 3.2545082184940406 3.3011680601297342 16.2742136481580637
51 1 6.5128130064335714 3.1849923288381019 16.1636741747245196
52 1 0.0801185896405565 6.4646388848381422 16.0591169342610662
53 1 3.3283903067041241 6.4163179081689075 16.1279234990007296
54 1 6.4643825872497294 6.5256989986512028 16.1418110847189986
ITEM: TIMESTEP energy, energy_weight, force_weight, nsims
7 -87947.2927437670064196 1 1 678
ITEM: NUMBER OF ATOMS
54
ITEM: BOX BOUNDS xy xz yz pp pp pp
0.0 9.8112550817182474 0.0668444553673049
0.0 9.743003072284333 0.169212894320443
0.0 24.2375926919137506 0.1680351449994032
ITEM: ATOMS id type x y z
1 1 1.6370692006068146 1.654172356260151 8.069373259733462
2 1 4.9176014437771372 1.6028389001589354 7.8536247521456612
3 1 7.9909429258466042 1.627485955303141 7.8287836433957186
4 1 1.7793480645383208 4.8408902506903458 7.9692501880824356
5 1 4.8211356054562824 4.9120030810519362 8.2661219184100716
6 1 8.0760111398809755 4.8660144386652534 7.9430711642158994
7 1 1.7358893427306152 7.9705311149954694 8.2401367952850713
8 1 4.8259108825375058 8.0440695033137395 7.8260472191808006
9 1 7.9999716887615744 8.0395011492994612 8.0772504773583336
10 1 0.1550407136348994 0.039678200431917 9.8952735250304756
11 1 3.1708572585596922 0.1603096867171582 9.6244814444393398
12 1 6.4989834936451364 0.0565472808608625 9.873576032052677
13 1 0.0743599060207478 3.191810279061635 9.5549656048396622
14 1 3.2619860901981572 3.2623637724628916 9.7642523702157984
15 1 6.5592091986411606 3.2705059217066572 9.5653150569191094
16 1 0.052579358455743 6.3902808877910529 9.9038972605102594
17 1 3.3254889497140177 6.4373652827248371 9.8782732775163674
18 1 6.4717967197935114 6.3899110220015212 9.7418544108092018
19 1 1.768097591960483 1.599404175143438 11.4321792776247282
20 1 4.92752474836563 1.727615783797774 11.3937723882451216
21 1 8.0683490837638114 1.7553072260782556 11.2546486061935358
22 1 1.6829214946663864 4.8971158587133204 11.1279005389704437
23 1 4.8609339431642544 4.9368993299549322 11.1203674951617977
24 1 8.0159923883646407 4.8077890051242874 11.458666118918453
25 1 1.6825369993985532 8.0419012505990661 11.3769369563613197
26 1 4.9271859512268818 8.0169862211368717 11.1374525742503288
27 1 8.1769902309613389 8.1335067163995945 11.4995549377897106
28 1 0.0962393995933786 0.1434424664791115 13.0771119808468406
29 1 3.3228015831485505 0.1778541957628257 12.8860034099896358
30 1 6.4691434315674262 0.1685822325098177 12.7784781775305004
31 1 0.0367637340089129 3.223804579796655 12.742766508458237
32 1 3.2138165424985021 3.3228282522717421 12.8463943360125122
33 1 6.4471659342057768 3.2156507445325002 12.8295298190174752
34 1 0.1876906579796273 6.3995112626578248 13.0026977237641237
35 1 3.3418300793891018 6.443184557509353 12.8734192518639966
36 1 6.505585863479574 6.4281023660525776 13.0549394310522757
37 1 1.6981676915366202 1.7832295210512892 14.4086453392846981
38 1 4.940844910572248 1.6475078449799992 14.7222458560882928
39 1 8.0339169591815764 1.7268881559369946 14.5373154476082594
40 1 1.6925733133422804 4.7944182830058716 14.4014904019220449
41 1 4.8276672112693362 4.925643350571721 14.4769177903792806
42 1 8.0352825981370533 4.881296980145117 14.7717971905876394
43 1 1.7346865131860782 8.1476177617571555 14.800317565908216
44 1 4.9167716104645062 8.0701787211440177 14.6890621679337966
45 1 8.1560346087699731 8.1515241645193726 14.4336076359980954
46 1 0.1562744020893443 0.1778401348856174 15.9668777496885638
47 1 3.3503633722123136 0.1168218672499256 16.2632816944772465
48 1 6.4086800093985321 0.1861655488236247 16.08744523077522
49 1 0.1278533528514215 3.393021985719507 16.3464772313922389
50 1 3.3466517248326104 3.351612942157701 16.1423239881482488
51 1 6.4444259844231633 3.3683761680977944 16.3382122122842937
52 1 0.2046540491185129 6.4970939878974284 16.3029053110099867
53 1 3.3051383682499469 6.4872781405326858 16.2141593653685412
54 1 6.4516118282490274 6.4146347141749658 16.1793469109851493
ITEM: TIMESTEP energy, energy_weight, force_weight, nsims
8 -87947.5535621851763628 1 1 678
ITEM: NUMBER OF ATOMS
54
ITEM: BOX BOUNDS xy xz yz pp pp pp
0.0 9.9297768792453204 0.1002618954520914
0.0 9.8263455933439268 0.2543172517627301
0.0 24.2844154088233815 0.2516744971886896
ITEM: ATOMS id type x y z
1 1 1.772380281581418 1.6955253384822186 8.232768947614554
2 1 4.8420537258590964 1.6718680022893184 8.1116261413476387
3 1 8.0199036231785765 1.5854411551307742 7.9216661586951994
4 1 1.6707982055179638 4.7840022657010596 8.0820088683150377