ITEM: TIMESTEP energy, energy_weight, force_weight, nsims
0 -6507.5398894829977512 1 1 99
ITEM: NUMBER OF ATOMS
4
ITEM: BOX BOUNDS pp pp pp
0.0 3.4277985481223996
0.0 3.4277985481223996
0.0 3.4277985481223996
ITEM: ATOMS id type x y z
1 1 0.0 0.0 0.0
2 1 0.0 1.7138992740611998 1.7138992740611998
3 1 1.7138992740611998 0.0 1.7138992740611998
4 1 1.7138992740611998 1.7138992740611998 0.0
ITEM: TIMESTEP energy, energy_weight, force_weight, nsims
1 -6511.0419452437199656 1 1 99
ITEM: NUMBER OF ATOMS
4
ITEM: BOX BOUNDS pp pp pp
0.0 3.5601457780972994
0.0 3.5601457780972994
0.0 3.5601457780972994
ITEM: ATOMS id type x y z
1 1 0.0 0.0 0.0
2 1 0.0 1.7800728890486498 1.7800728890486498
3 1 1.7800728890486498 0.0 1.7800728890486498
4 1 1.7800728890486498 1.7800728890486498 0.0
ITEM: TIMESTEP energy, energy_weight, force_weight, nsims
2 -6511.3572433737681424 1 1 99
ITEM: NUMBER OF ATOMS
4
ITEM: BOX BOUNDS pp pp pp
0.0 3.5745393992700998
0.0 3.5745393992700998
0.0 3.5745393992700998
ITEM: ATOMS id type x y z
1 1 0.0 0.0 0.0
2 1 0.0 1.78726969963505 1.78726969963505
3 1 1.78726969963505 0.0 1.78726969963505
4 1 1.78726969963505 1.78726969963505 0.0
ITEM: TIMESTEP energy, energy_weight, force_weight, nsims
3 -6511.6593965816400672 1 1 99
ITEM: NUMBER OF ATOMS
4
ITEM: BOX BOUNDS pp pp pp
0.0 3.588880102718
0.0 3.588880102718
0.0 3.588880102718
ITEM: ATOMS id type x y z
1 1 0.0 0.0 0.0
2 1 0.0 1.794440051359 1.794440051359
3 1 1.794440051359 0.0 1.794440051359
4 1 1.794440051359 1.794440051359 0.0
ITEM: TIMESTEP energy, energy_weight, force_weight, nsims
4 -6511.9487965727912528 1 1 99
ITEM: NUMBER OF ATOMS
4
ITEM: BOX BOUNDS pp pp pp
0.0 3.603167888441
0.0 3.603167888441
0.0 3.603167888441
ITEM: ATOMS id type x y z
1 1 0.0 0.0 0.0
2 1 0.0 1.8015839442205 1.8015839442205
3 1 1.8015839442205 0.0 1.8015839442205
4 1 1.8015839442205 1.8015839442205 0.0
ITEM: TIMESTEP energy, energy_weight, force_weight, nsims
5 -6512.2258236239667896 1 1 99
ITEM: NUMBER OF ATOMS
4
ITEM: BOX BOUNDS pp pp pp
0.0 3.6174027564390996
0.0 3.6174027564390996
0.0 3.6174027564390996
ITEM: ATOMS id type x y z
1 1 0.0 0.0 0.0
2 1 0.0 1.8087013782195496 1.8087013782195496
3 1 1.8087013782195496 0.0 1.8087013782195496
4 1 1.8087013782195496 1.8087013782195496 0.0
ITEM: TIMESTEP energy, energy_weight, force_weight, nsims
6 -6512.4908501206600704 1 1 99
ITEM: NUMBER OF ATOMS
4
ITEM: BOX BOUNDS pp pp pp
0.0 3.6315847067123
0.0 3.6315847067123
0.0 3.6315847067123
ITEM: ATOMS id type x y z
1 1 0.0 0.0 0.0
2 1 0.0 1.81579235335615 1.81579235335615
3 1 1.81579235335615 0.0 1.81579235335615
4 1 1.81579235335615 1.81579235335615 0.0
ITEM: TIMESTEP energy, energy_weight, force_weight, nsims
7 -6512.744235931203548 1 1 99
ITEM: NUMBER OF ATOMS
4
ITEM: BOX BOUNDS pp pp pp
0.0 3.6457137392606002
0.0 3.6457137392606002
0.0 3.6457137392606002
ITEM: ATOMS id type x y z
1 1 0.0 0.0 0.0
2 1 0.0 1.8228568696303 1.8228568696303
3 1 1.8228568696303 0.0 1.8228568696303
4 1 1.8228568696303 1.8228568696303 0.0
ITEM: TIMESTEP energy, energy_weight, force_weight, nsims
8 -6512.9863247332596076 1 1 99
ITEM: NUMBER OF ATOMS
4
ITEM: BOX BOUNDS pp pp pp
0.0 3.659789854084
0.0 3.659789854084
0.0 3.659789854084
ITEM: ATOMS id type x y z
1 1 0.0 0.0 0.0
2 1 0.0 1.829894927042 1.829894927042
3 1 1.829894927042 0.0 1.829894927042
4 1 1.829894927042 1.829894927042 0.0
ITEM: TIMESTEP energy, energy_weight, force_weight, nsims
9 -6513.2174539459047084 1 1 99
ITEM: NUMBER OF ATOMS
4
ITEM: BOX BOUNDS pp pp pp
0.0 3.6738130511824996
0.0 3.6738130511824996
0.0 3.6738130511824996
ITEM: ATOMS id type x y z
1 1 0.0 0.0 0.0
2 1 0.0 1.8369065255912496 1.8369065255912496
3 1 1.8369065255912496 0.0 1.8369065255912496
4 1 1.8369065255912496 1.8369065255912496 0.0
ITEM: TIMESTEP energy, energy_weight, force_weight, nsims
10 -6513.4379450696596904 1 1 99
ITEM: NUMBER OF ATOMS
4
ITEM: BOX BOUNDS pp pp pp
0.0 3.6877833305560994
0.0 3.6877833305560994
0.0 3.6877833305560994
ITEM: ATOMS id type x y z
1 1 0.0 0.0 0.0
2 1 0.0 1.8438916652780498 1.8438916652780498
3 1 1.8438916652780498 0.0 1.8438916652780498
4 1 1.8438916652780498 1.8438916652780498 0.0
ITEM: TIMESTEP energy, energy_weight, force_weight, nsims
11 -6507.9938382831633136 1 1 99
ITEM: NUMBER OF ATOMS
4
ITEM: BOX BOUNDS pp pp pp
0.0 3.4427742642690995
0.0 3.4427742642690995
0.0 3.4427742642690995
ITEM: ATOMS id type x y z
1 1 0.0 0.0 0.0
2 1 0.0 1.7213871321345496 1.7213871321345496
3 1 1.7213871321345496 0.0 1.7213871321345496
4 1 1.7213871321345496 1.7213871321345496 0.0
ITEM: TIMESTEP energy, energy_weight, force_weight, nsims
12 -6513.648110489285500 1 1 99
ITEM: NUMBER OF ATOMS
4
ITEM: BOX BOUNDS pp pp pp
0.0 3.7016477744798998
0.0 3.7016477744798998
0.0 3.7016477744798998
ITEM: ATOMS id type x y z
1 1 0.0 0.0 0.0
2 1 0.0 1.8508238872399496 1.8508238872399496
3 1 1.8508238872399496 0.0 1.8508238872399496
4 1 1.8508238872399496 1.8508238872399496 0.0
ITEM: TIMESTEP energy, energy_weight, force_weight, nsims
13 -6513.848262861655712 1 1 99
ITEM: NUMBER OF ATOMS
4
ITEM: BOX BOUNDS pp pp pp
0.0 3.7155122184037
0.0 3.7155122184037
0.0 3.7155122184037
ITEM: ATOMS id type x y z
1 1 0.0 0.0 0.0
2 1 0.0 1.85775610920185 1.85775610920185
3 1 1.85775610920185 0.0 1.85775610920185
4 1 1.85775610920185 1.85775610920185 0.0
ITEM: TIMESTEP energy, energy_weight, force_weight, nsims
14 -6514.0386902174914216 1 1 99
ITEM: NUMBER OF ATOMS
4
ITEM: BOX BOUNDS pp pp pp
0.0 3.7293237446025996
0.0 3.7293237446025996
0.0 3.7293237446025996
ITEM: ATOMS id type x y z
1 1 0.0 0.0 0.0
2 1 0.0 1.8646618723013 1.8646618723013
3 1 1.8646618723013 0.0 1.8646618723013
4 1 1.8646618723013 1.8646618723013 0.0
ITEM: TIMESTEP energy, energy_weight, force_weight, nsims
15 -6514.2196818120228272 1 1 99
ITEM: NUMBER OF ATOMS
4
ITEM: BOX BOUNDS pp pp pp
0.0 3.7430823530765998
0.0 3.7430823530765998
0.0 3.7430823530765998
ITEM: ATOMS id type x y z
1 1 0.0 0.0 0.0
2 1 0.0 1.8715411765383002 1.8715411765383002
3 1 1.8715411765383002 0.0 1.8715411765383002
4 1 1.8715411765383002 1.8715411765383002 0.0
ITEM: TIMESTEP energy, energy_weight, force_weight, nsims
16 -6514.391514927538992 1 1 99
ITEM: NUMBER OF ATOMS
4
ITEM: BOX BOUNDS pp pp pp
0.0 3.7567880438256998
0.0 3.7567880438256998
0.0 3.7567880438256998
ITEM: ATOMS id type x y z
1 1 0.0 0.0 0.0
2 1 0.0 1.8783940219128502 1.8783940219128502
3 1 1.8783940219128502 0.0 1.8783940219128502
4 1 1.8783940219128502 1.8783940219128502 0.0
ITEM: TIMESTEP energy, energy_weight, force_weight, nsims
17 -6514.5544566421276616 1 1 99
ITEM: NUMBER OF ATOMS
4
ITEM: BOX BOUNDS pp pp pp
0.0 3.7704408168498996
0.0 3.7704408168498996
0.0 3.7704408168498996
ITEM: ATOMS id type x y z
1 1 0.0 0.0 0.0
2 1 0.0 1.8852204084249496 1.8852204084249496
3 1 1.8852204084249496 0.0 1.8852204084249496
4 1 1.8852204084249496 1.8852204084249496 0.0
ITEM: TIMESTEP energy, energy_weight, force_weight, nsims
18 -6514.7087692719142072 1 1 99
ITEM: NUMBER OF ATOMS
4
ITEM: BOX BOUNDS pp pp pp
0.0 3.7840406721492
0.0 3.7840406721492
0.0 3.7840406721492
ITEM: ATOMS id type x y z
1 1 0.0 0.0 0.0
2 1 0.0 1.8920203360746 1.8920203360746
3 1 1.8920203360746 0.0 1.8920203360746
4 1 1.8920203360746 1.8920203360746 0.0
ITEM: TIMESTEP energy, energy_weight, force_weight, nsims
19 -6514.8547064254316864 1 1 99
ITEM: NUMBER OF ATOMS
4
ITEM: BOX BOUNDS pp pp pp
0.0 3.7975876097235998
0.0 3.7975876097235998
0.0 3.7975876097235998
ITEM: ATOMS id type x y z
1 1 0.0 0.0 0.0
2 1 0.0 1.8987938048618 1.8987938048618
3 1 1.8987938048618 0.0 1.8987938048618
4 1 1.8987938048618 1.8987938048618 0.0
ITEM: TIMESTEP energy, energy_weight, force_weight, nsims
20 -6514.9925094661666664 1 1 99
ITEM: NUMBER OF ATOMS
4
ITEM: BOX BOUNDS pp pp pp
0.0 3.8110816295731
0.0 3.8110816295731
0.0 3.8110816295731
ITEM: ATOMS id type x y z
1 1 0.0 0.0 0.0
2 1 0.0 1.90554081478655 1.90554081478655
3 1 1.90554081478655 0.0 1.90554081478655
4 1 1.90554081478655 1.90554081478655 0.0
ITEM: TIMESTEP energy, energy_weight, force_weight, nsims
21 -6515.1224188052137832 1 1 99
ITEM: NUMBER OF ATOMS
4
ITEM: BOX BOUNDS pp pp pp
0.0 3.8245756494226
0.0 3.8245756494226
0.0 3.8245756494226
ITEM: ATOMS id type x y z
1 1 0.0 0.0 0.0
2 1 0.0 1.9122878247113 1.9122878247113
3 1 1.9122878247113 0.0 1.9122878247113
4 1 1.9122878247113 1.9122878247113 0.0
ITEM: TIMESTEP energy, energy_weight, force_weight, nsims
22 -6508.430374898237460 1 1 99
ITEM: NUMBER OF ATOMS
4
ITEM: BOX BOUNDS pp pp pp
0.0 3.4576441449659998
0.0 3.4576441449659998
0.0 3.4576441449659998
ITEM: ATOMS id type x y z
1 1 0.0 0.0 0.0
2 1 0.0 1.728822072483 1.728822072483
3 1 1.728822072483 0.0 1.728822072483
4 1 1.728822072483 1.728822072483 0.0
ITEM: TIMESTEP energy, energy_weight, force_weight, nsims
23 -6515.2446672345267872 1 1 99
ITEM: NUMBER OF ATOMS
4
ITEM: BOX BOUNDS pp pp pp
0.0 3.8379638338223
0.0 3.8379638338223
0.0 3.8379638338223
ITEM: ATOMS id type x y z
1 1 0.0 0.0 0.0
2 1 0.0 1.91898191691115 1.91898191691115
3 1 1.91898191691115 0.0 1.91898191691115
4 1 1.91898191691115 1.91898191691115 0.0
ITEM: TIMESTEP energy, energy_weight, force_weight, nsims
24 -6515.3594778860788216 1 1 99
ITEM: NUMBER OF ATOMS
4
ITEM: BOX BOUNDS pp pp pp
0.0 3.8513520182219994
0.0 3.8513520182219994
0.0 3.8513520182219994
ITEM: ATOMS id type x y z
1 1 0.0 0.0 0.0
2 1 0.0 1.9256760091109996 1.9256760091109996
3 1 1.9256760091109996 0.0 1.9256760091109996
4 1 1.9256760091109996 1.9256760091109996 0.0
ITEM: TIMESTEP energy, energy_weight, force_weight, nsims
25 -6515.4670660005886024 1 1 99
ITEM: NUMBER OF ATOMS
4
ITEM: BOX BOUNDS pp pp pp
0.0 3.8646343671718998
0.0 3.8646343671718998
0.0 3.8646343671718998
ITEM: ATOMS id type x y z
1 1 0.0 0.0 0.0
2 1 0.0 1.9323171835859496 1.9323171835859496
3 1 1.9323171835859496 0.0 1.9323171835859496
4 1 1.9323171835859496 1.9323171835859496 0.0
ITEM: TIMESTEP energy, energy_weight, force_weight, nsims
26 -6515.567648043281224 1 1 99
ITEM: NUMBER OF ATOMS
4
ITEM: BOX BOUNDS pp pp pp
0.0 3.8779167161217996
0.0 3.8779167161217996
0.0 3.8779167161217996
ITEM: ATOMS id type x y z
1 1 0.0 0.0 0.0
2 1 0.0 1.9389583580609 1.9389583580609
3 1 1.9389583580609 0.0 1.9389583580609
4 1 1.9389583580609 1.9389583580609 0.0
ITEM: TIMESTEP energy, energy_weight, force_weight, nsims
27 -6515.661427554052352 1 1 99
ITEM: NUMBER OF ATOMS
4
ITEM: BOX BOUNDS pp pp pp
0.0 3.8911461473467996
0.0 3.8911461473467996
0.0 3.8911461473467996
ITEM: ATOMS id type x y z
1 1 0.0 0.0 0.0
2 1 0.0 1.9455730736734 1.9455730736734
3 1 1.9455730736734 0.0 1.9455730736734
4 1 1.9455730736734 1.9455730736734 0.0
ITEM: TIMESTEP energy, energy_weight, force_weight, nsims
28 -6515.7486024945028472 1 1 99
ITEM: NUMBER OF ATOMS
4
ITEM: BOX BOUNDS pp pp pp
0.0 3.9043226608468994
0.0 3.9043226608468994
0.0 3.9043226608468994
ITEM: ATOMS id type x y z
1 1 0.0 0.0 0.0
2 1 0.0 1.9521613304234496 1.9521613304234496
3 1 1.9521613304234496 0.0 1.9521613304234496
4 1 1.9521613304234496 1.9521613304234496 0.0
ITEM: TIMESTEP energy, energy_weight, force_weight, nsims
29 -6515.8293736834011728 1 1 99
ITEM: NUMBER OF ATOMS
4
ITEM: BOX BOUNDS pp pp pp
0.0 3.9174991743469994
0.0 3.9174991743469994
0.0 3.9174991743469994
ITEM: ATOMS id type x y z
1 1 0.0 0.0 0.0
2 1 0.0 1.9587495871734996 1.9587495871734996
3 1 1.9587495871734996 0.0 1.9587495871734996
4 1 1.9587495871734996 1.9587495871734996 0.0
ITEM: TIMESTEP energy, energy_weight, force_weight, nsims
30 -6515.9039252046313776 1 1 99
ITEM: NUMBER OF ATOMS
4
ITEM: BOX BOUNDS pp pp pp
0.0 3.9305698523972996
0.0 3.9305698523972996
0.0 3.9305698523972996
ITEM: ATOMS id type x y z
1 1 0.0 0.0 0.0
2 1 0.0 1.9652849261986496 1.9652849261986496
3 1 1.9652849261986496 0.0 1.9652849261986496
4 1 1.9652849261986496 1.9652849261986496 0.0
ITEM: TIMESTEP energy, energy_weight, force_weight, nsims
31 -6515.9724392372800136 1 1 99
ITEM: NUMBER OF ATOMS
4
ITEM: BOX BOUNDS pp pp pp
0.0 3.9436405304475998
0.0 3.9436405304475998
0.0 3.9436405304475998
ITEM: ATOMS id type x y z
1 1 0.0 0.0 0.0
2 1 0.0 1.9718202652238 1.9718202652238
3 1 1.9718202652238 0.0 1.9718202652238
4 1 1.9718202652238 1.9718202652238 0.0
ITEM: TIMESTEP energy, energy_weight, force_weight, nsims
32 -6516.035098096499496 1 1 99
ITEM: NUMBER OF ATOMS
4
ITEM: BOX BOUNDS pp pp pp
0.0 3.956658290773
0.0 3.956658290773
0.0 3.956658290773
ITEM: ATOMS id type x y z
1 1 0.0 0.0 0.0
2 1 0.0 1.9783291453865 1.9783291453865
3 1 1.9783291453865 0.0 1.9783291453865
4 1 1.9783291453865 1.9783291453865 0.0
ITEM: TIMESTEP energy, energy_weight, force_weight, nsims
33 -6508.8500391987499824 1 1 99
ITEM: NUMBER OF ATOMS
4
ITEM: BOX BOUNDS pp pp pp
0.0 3.472461107938
0.0 3.472461107938
0.0 3.472461107938
ITEM: ATOMS id type x y z
1 1 0.0 0.0 0.0
2 1 0.0 1.736230553969 1.736230553969
3 1 1.736230553969 0.0 1.736230553969
4 1 1.736230553969 1.736230553969 0.0
ITEM: TIMESTEP energy, energy_weight, force_weight, nsims
34 -6516.0920759340697260 1 1 99
ITEM: NUMBER OF ATOMS
4
ITEM: BOX BOUNDS pp pp pp
0.0 3.9696231333734998
0.0 3.9696231333734998
0.0 3.9696231333734998
ITEM: ATOMS id type x y z
1 1 0.0 0.0 0.0
2 1 0.0 1.98481156668675 1.98481156668675
3 1 1.98481156668675 0.0 1.98481156668675
4 1 1.98481156668675 1.98481156668675 0.0
ITEM: TIMESTEP energy, energy_weight, force_weight, nsims
35 -6516.1435409153073124 1 1 99
ITEM: NUMBER OF ATOMS
4
ITEM: BOX BOUNDS pp pp pp
0.0 3.9825350582490998
0.0 3.9825350582490998
0.0 3.9825350582490998
ITEM: ATOMS id type x y z
1 1 0.0 0.0 0.0
2 1 0.0 1.99126752912455 1.99126752912455
3 1 1.99126752912455 0.0 1.99126752912455
4 1 1.99126752912455 1.99126752912455 0.0
ITEM: TIMESTEP energy, energy_weight, force_weight, nsims
36 -6516.1896564435664912 1 1 99
ITEM: NUMBER OF ATOMS
4
ITEM: BOX BOUNDS pp pp pp
0.0 3.9953940653998
0.0 3.9953940653998
0.0 3.9953940653998
ITEM: ATOMS id type x y z
1 1 0.0 0.0 0.0
2 1 0.0 1.9976970326999 1.9976970326999
3 1 1.9976970326999 0.0 1.9976970326999
4 1 1.9976970326999 1.9976970326999 0.0
ITEM: TIMESTEP energy, energy_weight, force_weight, nsims
37 -6516.2305833371337940 1 1 99
ITEM: NUMBER OF ATOMS
4
ITEM: BOX BOUNDS pp pp pp
0.0 4.0082530725504997
0.0 4.0082530725504997
0.0 4.0082530725504997
ITEM: ATOMS id type x y z
1 1 0.0 0.0 0.0
2 1 0.0 2.0041265362752498 2.0041265362752498
3 1 2.0041265362752498 0.0 2.0041265362752498
4 1 2.0041265362752498 2.0041265362752498 0.0
ITEM: TIMESTEP energy, energy_weight, force_weight, nsims
38 -6516.2664768359964 1 1 99
ITEM: NUMBER OF ATOMS
4
ITEM: BOX BOUNDS pp pp pp
0.0 4.0210591619763001
0.0 4.0210591619763001
0.0 4.0210591619763001
ITEM: ATOMS id type x y z
1 1 0.0 0.0 0.0
2 1 0.0 2.01052958098815 2.01052958098815
3 1 2.01052958098815 0.0 2.01052958098815
4 1 2.01052958098815 2.01052958098815 0.0
ITEM: TIMESTEP energy, energy_weight, force_weight, nsims
39 -6516.2974874181809356 1 1 99
ITEM: NUMBER OF ATOMS
4
ITEM: BOX BOUNDS pp pp pp
0.0 4.0338123336771998
0.0 4.0338123336771998
0.0 4.0338123336771998
ITEM: ATOMS id type x y z
1 1 0.0 0.0 0.0
2 1 0.0 2.0169061668385999 2.0169061668385999
3 1 2.0169061668385999 0.0 2.0169061668385999
4 1 2.0169061668385999 2.0169061668385999 0.0
ITEM: TIMESTEP energy, energy_weight, force_weight, nsims
40 -6516.3237625684787416 1 1 99
ITEM: NUMBER OF ATOMS
4
ITEM: BOX BOUNDS pp pp pp
0.0 4.0465125876531998
0.0 4.0465125876531998
0.0 4.0465125876531998
ITEM: ATOMS id type x y z
1 1 0.0 0.0 0.0
2 1 0.0 2.0232562938265999 2.0232562938265999
3 1 2.0232562938265999 0.0 2.0232562938265999
4 1 2.0232562938265999 2.0232562938265999 0.0
ITEM: TIMESTEP energy, energy_weight, force_weight, nsims
41 -6516.3454482750612444 1 1 99
ITEM: NUMBER OF ATOMS
4
ITEM: BOX BOUNDS pp pp pp
0.0 4.0592128416291997
0.0 4.0592128416291997
0.0 4.0592128416291997
ITEM: ATOMS id type x y z
1 1 0.0 0.0 0.0
2 1 0.0 2.0296064208145999 2.0296064208145999
3 1 2.0296064208145999 0.0 2.0296064208145999
4 1 2.0296064208145999 2.0296064208145999 0.0
ITEM: TIMESTEP energy, energy_weight, force_weight, nsims
42 -6516.3626797776769308 1 1 99
ITEM: NUMBER OF ATOMS
4
ITEM: BOX BOUNDS pp pp pp
0.0 4.0718601778802999
0.0 4.0718601778802999
0.0 4.0718601778802999
ITEM: ATOMS id type x y z
1 1 0.0 0.0 0.0
2 1 0.0 2.0359300889401499 2.0359300889401499
3 1 2.0359300889401499 0.0 2.0359300889401499
4 1 2.0359300889401499 2.0359300889401499 0.0
ITEM: TIMESTEP energy, energy_weight, force_weight, nsims
43 -6516.3755932684607616 1 1 99
ITEM: NUMBER OF ATOMS
4
ITEM: BOX BOUNDS pp pp pp
0.0 4.0844545964064993
0.0 4.0844545964064993
0.0 4.0844545964064993
ITEM: ATOMS id type x y z
1 1 0.0 0.0 0.0
2 1 0.0 2.0422272982032497 2.0422272982032497
3 1 2.0422272982032497 0.0 2.0422272982032497
4 1 2.0422272982032497 2.0422272982032497 0.0
ITEM: TIMESTEP energy, energy_weight, force_weight, nsims
44 -6509.2533578577886148 1 1 99
ITEM: NUMBER OF ATOMS
4
ITEM: BOX BOUNDS pp pp pp
0.0 3.4872251531850998
0.0 3.4872251531850998
0.0 3.4872251531850998
ITEM: ATOMS id type x y z
1 1 0.0 0.0 0.0
2 1 0.0 1.7436125765925502 1.7436125765925502
3 1 1.7436125765925502 0.0 1.7436125765925502
4 1 1.7436125765925502 1.7436125765925502 0.0
ITEM: TIMESTEP energy, energy_weight, force_weight, nsims
45 -6516.3843249395495148 1 1 99
ITEM: NUMBER OF ATOMS
4
ITEM: BOX BOUNDS pp pp pp
0.0 4.0969960972077999
0.0 4.0969960972077999
0.0 4.0969960972077999
ITEM: ATOMS id type x y z
1 1 0.0 0.0 0.0
2 1 0.0 2.0484980486038999 2.0484980486038999
3 1 2.0484980486038999 0.0 2.0484980486038999
4 1 2.0484980486038999 2.0484980486038999 0.0
ITEM: TIMESTEP energy, energy_weight, force_weight, nsims
46 -6516.3889987380316596 1 1 99
ITEM: NUMBER OF ATOMS
4
ITEM: BOX BOUNDS pp pp pp
0.0 4.1095375980090996
0.0 4.1095375980090996
0.0 4.1095375980090996
ITEM: ATOMS id type x y z
1 1 0.0 0.0 0.0
2 1 0.0 2.0547687990045498 2.0547687990045498
3 1 2.0547687990045498 0.0 2.0547687990045498
4 1 2.0547687990045498 2.0547687990045498 0.0
ITEM: TIMESTEP energy, energy_weight, force_weight, nsims
47 -6516.3897365701577656 1 1 99
ITEM: NUMBER OF ATOMS
4
ITEM: BOX BOUNDS pp pp pp
0.0 4.1220261810854995
0.0 4.1220261810854995
0.0 4.1220261810854995
ITEM: ATOMS id type x y z
1 1 0.0 0.0 0.0
2 1 0.0 2.0610130905427497 2.0610130905427497
3 1 2.0610130905427497 0.0 2.0610130905427497
4 1 2.0610130905427497 2.0610130905427497 0.0
ITEM: TIMESTEP energy, energy_weight, force_weight, nsims
48 -6516.3866661925849256 1 1 99
ITEM: NUMBER OF ATOMS
4
ITEM: BOX BOUNDS pp pp pp
0.0 4.1344618464369996
0.0 4.1344618464369996
0.0 4.1344618464369996
ITEM: ATOMS id type x y z
1 1 0.0 0.0 0.0
2 1 0.0 2.0672309232185002 2.0672309232185002
3 1 2.0672309232185002 0.0 2.0672309232185002
4 1 2.0672309232185002 2.0672309232185002 0.0
ITEM: TIMESTEP energy, energy_weight, force_weight, nsims
49 -6516.3799051577689172 1 1 99
ITEM: NUMBER OF ATOMS
4
ITEM: BOX BOUNDS pp pp pp
0.0 4.1468445940635999
0.0 4.1468445940635999
0.0 4.1468445940635999
ITEM: ATOMS id type x y z
1 1 0.0 0.0 0.0
2 1 0.0 2.0734222970317999 2.0734222970317999
3 1 2.0734222970317999 0.0 2.0734222970317999
4 1 2.0734222970317999 2.0734222970317999 0.0
ITEM: TIMESTEP energy, energy_weight, force_weight, nsims
50 -6516.3695636711345288 1 1 99
ITEM: NUMBER OF ATOMS
4
ITEM: BOX BOUNDS pp pp pp
0.0 4.1592273416901993
0.0 4.1592273416901993
0.0 4.1592273416901993
ITEM: ATOMS id type x y z
1 1 0.0 0.0 0.0
2 1 0.0 2.0796136708450996 2.0796136708450996
3 1 2.0796136708450996 0.0 2.0796136708450996
4 1 2.0796136708450996 2.0796136708450996 0.0
ITEM: TIMESTEP energy, energy_weight, force_weight, nsims
51 -6516.3557569721806432 1 1 99
ITEM: NUMBER OF ATOMS
4
ITEM: BOX BOUNDS pp pp pp
0.0 4.1715571715918998
0.0 4.1715571715918998
0.0 4.1715571715918998
ITEM: ATOMS id type x y z
1 1 0.0 0.0 0.0
2 1 0.0 2.0857785857959499 2.0857785857959499
3 1 2.0857785857959499 0.0 2.0857785857959499
4 1 2.0857785857959499 2.0857785857959499 0.0
ITEM: TIMESTEP energy, energy_weight, force_weight, nsims
52 -6516.3385936336617304 1 1 99
ITEM: NUMBER OF ATOMS
4
ITEM: BOX BOUNDS pp pp pp
0.0 4.1838870014935994
0.0 4.1838870014935994
0.0 4.1838870014935994
ITEM: ATOMS id type x y z
1 1 0.0 0.0 0.0
2 1 0.0 2.0919435007467997 2.0919435007467997
3 1 2.0919435007467997 0.0 2.0919435007467997
4 1 2.0919435007467997 2.0919435007467997 0.0
ITEM: TIMESTEP energy, energy_weight, force_weight, nsims
53 -6516.3181797793204168 1 1 99
ITEM: NUMBER OF ATOMS
4
ITEM: BOX BOUNDS pp pp pp
0.0 4.1961109959454994
0.0 4.1961109959454994
0.0 4.1961109959454994
ITEM: ATOMS id type x y z
1 1 0.0 0.0 0.0
2 1 0.0 2.0980554979727497 2.0980554979727497
3 1 2.0980554979727497 0.0 2.0980554979727497
4 1 2.0980554979727497 2.0980554979727497 0.0
ITEM: TIMESTEP energy, energy_weight, force_weight, nsims
54 -6516.2946188117757628 1 1 99
ITEM: NUMBER OF ATOMS
4
ITEM: BOX BOUNDS pp pp pp
0.0 4.2083879081223001
0.0 4.2083879081223001
0.0 4.2083879081223001
ITEM: ATOMS id type x y z
1 1 0.0 0.0 0.0
2 1 0.0 2.1041939540611501 2.1041939540611501
3 1 2.1041939540611501 0.0 2.1041939540611501
4 1 2.1041939540611501 2.1041939540611501 0.0
ITEM: TIMESTEP energy, energy_weight, force_weight, nsims
55 -6509.6408457115612692 1 1 99
ITEM: NUMBER OF ATOMS
4
ITEM: BOX BOUNDS pp pp pp
0.0 3.5019362807072998
0.0 3.5019362807072998
0.0 3.5019362807072998
ITEM: ATOMS id type x y z
1 1 0.0 0.0 0.0
2 1 0.0 1.75096814035365 1.75096814035365
3 1 1.75096814035365 0.0 1.75096814035365
4 1 1.75096814035365 1.75096814035365 0.0
ITEM: TIMESTEP energy, energy_weight, force_weight, nsims
56 -6516.268010732250332 1 1 99
ITEM: NUMBER OF ATOMS
4
ITEM: BOX BOUNDS pp pp pp
0.0 4.2205589848492995
0.0 4.2205589848492995
0.0 4.2205589848492995
ITEM: ATOMS id type x y z
1 1 0.0 0.0 0.0
2 1 0.0 2.1102794924246497 2.1102794924246497
3 1 2.1102794924246497 0.0 2.1102794924246497
4 1 2.1102794924246497 2.1102794924246497 0.0
ITEM: TIMESTEP energy, energy_weight, force_weight, nsims
57 -6516.2384548616801112 1 1 99
ITEM: NUMBER OF ATOMS
4
ITEM: BOX BOUNDS pp pp pp
0.0 4.2327300615762997
0.0 4.2327300615762997
0.0 4.2327300615762997
ITEM: ATOMS id type x y z
1 1 0.0 0.0 0.0
2 1 0.0 2.1163650307881499 2.1163650307881499
3 1 2.1163650307881499 0.0 2.1163650307881499
4 1 2.1163650307881499 2.1163650307881499 0.0
ITEM: TIMESTEP energy, energy_weight, force_weight, nsims
58 -6516.206043037920608 1 1 99
ITEM: NUMBER OF ATOMS
4
ITEM: BOX BOUNDS pp pp pp
0.0 4.2448482205783993
0.0 4.2448482205783993
0.0 4.2448482205783993
ITEM: ATOMS id type x y z
1 1 0.0 0.0 0.0
2 1 0.0 2.1224241102891997 2.1224241102891997
3 1 2.1224241102891997 0.0 2.1224241102891997
4 1 2.1224241102891997 2.1224241102891997 0.0
ITEM: TIMESTEP energy, energy_weight, force_weight, nsims
59 -6516.1708709083977736 1 1 99
ITEM: NUMBER OF ATOMS
4
ITEM: BOX BOUNDS pp pp pp
0.0 4.2569134618555991
0.0 4.2569134618555991
0.0 4.2569134618555991
ITEM: ATOMS id type x y z
1 1 0.0 0.0 0.0
2 1 0.0 2.1284567309277995 2.1284567309277995
3 1 2.1284567309277995 0.0 2.1284567309277995
4 1 2.1284567309277995 2.1284567309277995 0.0
ITEM: TIMESTEP energy, energy_weight, force_weight, nsims
60 -6516.1330269095633412 1 1 99
ITEM: NUMBER OF ATOMS
4
ITEM: BOX BOUNDS pp pp pp
0.0 4.2689787031327997
0.0 4.2689787031327997
0.0 4.2689787031327997
ITEM: ATOMS id type x y z
1 1 0.0 0.0 0.0
2 1 0.0 2.1344893515663999 2.1344893515663999
3 1 2.1344893515663999 0.0 2.1344893515663999
4 1 2.1344893515663999 2.1344893515663999 0.0
ITEM: TIMESTEP energy, energy_weight, force_weight, nsims
61 -6516.0925977091392268 1 1 99
ITEM: NUMBER OF ATOMS
4
ITEM: BOX BOUNDS pp pp pp
0.0 4.2809910266850997
0.0 4.2809910266850997
0.0 4.2809910266850997
ITEM: ATOMS id type x y z
1 1 0.0 0.0 0.0
2 1 0.0 2.1404955133425499 2.1404955133425499
3 1 2.1404955133425499 0.0 2.1404955133425499
4 1 2.1404955133425499 2.1404955133425499 0.0
ITEM: TIMESTEP energy, energy_weight, force_weight, nsims
62 -6516.0496721517474724 1 1 99
ITEM: NUMBER OF ATOMS
4
ITEM: BOX BOUNDS pp pp pp
0.0 4.2930033502373997
0.0 4.2930033502373997
0.0 4.2930033502373997
ITEM: ATOMS id type x y z
1 1 0.0 0.0 0.0
2 1 0.0 2.1465016751186998 2.1465016751186998
3 1 2.1465016751186998 0.0 2.1465016751186998
4 1 2.1465016751186998 2.1465016751186998 0.0
ITEM: TIMESTEP energy, energy_weight, force_weight, nsims
63 -6516.0043314628674124 1 1 99
ITEM: NUMBER OF ATOMS
4
ITEM: BOX BOUNDS pp pp pp
0.0 4.3049098383398992
0.0 4.3049098383398992
0.0 4.3049098383398992
ITEM: ATOMS id type x y z
1 1 0.0 0.0 0.0
2 1 0.0 2.1524549191699496 2.1524549191699496
3 1 2.1524549191699496 0.0 2.1524549191699496
4 1 2.1524549191699496 2.1524549191699496 0.0
ITEM: TIMESTEP energy, energy_weight, force_weight, nsims
64 -6515.9566560516432216 1 1 99
ITEM: NUMBER OF ATOMS
4
ITEM: BOX BOUNDS pp pp pp
0.0 4.3168692441672994
0.0 4.3168692441672994
0.0 4.3168692441672994
ITEM: ATOMS id type x y z
1 1 0.0 0.0 0.0
2 1 0.0 2.1584346220836497 2.1584346220836497
3 1 2.1584346220836497 0.0 2.1584346220836497
4 1 2.1584346220836497 2.1584346220836497 0.0
ITEM: TIMESTEP energy, energy_weight, force_weight, nsims
65 -6515.9067253748262376 1 1 99
ITEM: NUMBER OF ATOMS
4
ITEM: BOX BOUNDS pp pp pp
0.0 4.3287228145448991
0.0 4.3287228145448991
0.0 4.3287228145448991
ITEM: ATOMS id type x y z
1 1 0.0 0.0 0.0
2 1 0.0 2.1643614072724495 2.1643614072724495
3 1 2.1643614072724495 0.0 2.1643614072724495
4 1 2.1643614072724495 2.1643614072724495 0.0
ITEM: TIMESTEP energy, energy_weight, force_weight, nsims
66 -6510.0129853509879472 1 1 99
ITEM: NUMBER OF ATOMS
4
ITEM: BOX BOUNDS pp pp pp
0.0 3.5165944905046
0.0 3.5165944905046
0.0 3.5165944905046
ITEM: ATOMS id type x y z
1 1 0.0 0.0 0.0
2 1 0.0 1.7582972452523 1.7582972452523
3 1 1.7582972452523 0.0 1.7582972452523
4 1 1.7582972452523 1.7582972452523 0.0
ITEM: TIMESTEP energy, energy_weight, force_weight, nsims
67 -6515.854614671429772 1 1 99
ITEM: NUMBER OF ATOMS
4
ITEM: BOX BOUNDS pp pp pp
0.0 4.3405763849224997
0.0 4.3405763849224997
0.0 4.3405763849224997
ITEM: ATOMS id type x y z
1 1 0.0 0.0 0.0
2 1 0.0 2.1702881924612498 2.1702881924612498
3 1 2.1702881924612498 0.0 2.1702881924612498
4 1 2.1702881924612498 2.1702881924612498 0.0
ITEM: TIMESTEP energy, energy_weight, force_weight, nsims
68 -6515.800401765530296 1 1 99
ITEM: NUMBER OF ATOMS
4
ITEM: BOX BOUNDS pp pp pp
0.0 4.3524299553000994
0.0 4.3524299553000994
0.0 4.3524299553000994
ITEM: ATOMS id type x y z
1 1 0.0 0.0 0.0
2 1 0.0 2.1762149776500497 2.1762149776500497
3 1 2.1762149776500497 0.0 2.1762149776500497
4 1 2.1762149776500497 2.1762149776500497 0.0
ITEM: TIMESTEP energy, energy_weight, force_weight, nsims
69 -6515.7441549572813528 1 1 99
ITEM: NUMBER OF ATOMS
4
ITEM: BOX BOUNDS pp pp pp
0.0 4.3642306079527993
0.0 4.3642306079527993
0.0 4.3642306079527993
ITEM: ATOMS id type x y z
1 1 0.0 0.0 0.0
2 1 0.0 2.1821153039763996 2.1821153039763996
3 1 2.1821153039763996 0.0 2.1821153039763996
4 1 2.1821153039763996 2.1821153039763996 0.0
ITEM: TIMESTEP energy, energy_weight, force_weight, nsims
70 -6515.685949893862016 1 1 99
ITEM: NUMBER OF ATOMS
4
ITEM: BOX BOUNDS pp pp pp
0.0 4.3759783428805994
0.0 4.3759783428805994
0.0 4.3759783428805994
ITEM: ATOMS id type x y z
1 1 0.0 0.0 0.0
2 1 0.0 2.1879891714402997 2.1879891714402997
3 1 2.1879891714402997 0.0 2.1879891714402997
4 1 2.1879891714402997 2.1879891714402997 0.0
ITEM: TIMESTEP energy, energy_weight, force_weight, nsims
71 -6515.6258513379716536 1 1 99
ITEM: NUMBER OF ATOMS
4
ITEM: BOX BOUNDS pp pp pp
0.0 4.3876731600834989
0.0 4.3876731600834989
0.0 4.3876731600834989
ITEM: ATOMS id type x y z
1 1 0.0 0.0 0.0
2 1 0.0 2.1938365800417494 2.1938365800417494
3 1 2.1938365800417494 0.0 2.1938365800417494
4 1 2.1938365800417494 2.1938365800417494 0.0
ITEM: TIMESTEP energy, energy_weight, force_weight, nsims
72 -6515.5639271815871328 1 1 99
ITEM: NUMBER OF ATOMS
4
ITEM: BOX BOUNDS pp pp pp
0.0 4.3993679772863992
0.0 4.3993679772863992
0.0 4.3993679772863992
ITEM: ATOMS id type x y z
1 1 0.0 0.0 0.0
2 1 0.0 2.1996839886431996 2.1996839886431996
3 1 2.1996839886431996 0.0 2.1996839886431996
4 1 2.1996839886431996 2.1996839886431996 0.0
ITEM: TIMESTEP energy, energy_weight, force_weight, nsims
73 -6515.5002416431843816 1 1 99
ITEM: NUMBER OF ATOMS
4
ITEM: BOX BOUNDS pp pp pp
0.0 4.4110627944892995
0.0 4.4110627944892995
0.0 4.4110627944892995
ITEM: ATOMS id type x y z
1 1 0.0 0.0 0.0
2 1 0.0 2.2055313972446498 2.2055313972446498
3 1 2.2055313972446498 0.0 2.2055313972446498
4 1 2.2055313972446498 2.2055313972446498 0.0
ITEM: TIMESTEP energy, energy_weight, force_weight, nsims
74 -6515.4348604378483288 1 1 99
ITEM: NUMBER OF ATOMS
4
ITEM: BOX BOUNDS pp pp pp
0.0 4.4227046939672992
0.0 4.4227046939672992
0.0 4.4227046939672992
ITEM: ATOMS id type x y z
1 1 0.0 0.0 0.0
2 1 0.0 2.2113523469836496 2.2113523469836496
3 1 2.2113523469836496 0.0 2.2113523469836496
4 1 2.2113523469836496 2.2113523469836496 0.0
ITEM: TIMESTEP energy, energy_weight, force_weight, nsims
75 -6515.3678426139176736 1 1 99
ITEM: NUMBER OF ATOMS
4
ITEM: BOX BOUNDS pp pp pp
0.0 4.4342936757203999
0.0 4.4342936757203999
0.0 4.4342936757203999
ITEM: ATOMS id type x y z
1 1 0.0 0.0 0.0
2 1 0.0 2.2171468378602 2.2171468378602
3 1 2.2171468378602 0.0 2.2171468378602
4 1 2.2171468378602 2.2171468378602 0.0
ITEM: TIMESTEP energy, energy_weight, force_weight, nsims
76 -6515.299250757190748 1 1 99
ITEM: NUMBER OF ATOMS
4
ITEM: BOX BOUNDS pp pp pp
0.0 4.4458826574734998
0.0 4.4458826574734998
0.0 4.4458826574734998
ITEM: ATOMS id type x y z
1 1 0.0 0.0 0.0
2 1 0.0 2.2229413287367499 2.2229413287367499
3 1 2.2229413287367499 0.0 2.2229413287367499
4 1 2.2229413287367499 2.2229413287367499 0.0
ITEM: TIMESTEP energy, energy_weight, force_weight, nsims
77 -6510.3702441287032344 1 1 99
ITEM: NUMBER OF ATOMS
4
ITEM: BOX BOUNDS pp pp pp
0.0 3.5311468648520998
0.0 3.5311468648520998
0.0 3.5311468648520998
ITEM: ATOMS id type x y z
1 1 0.0 0.0 0.0
2 1 0.0 1.76557343242605 1.76557343242605
3 1 1.76557343242605 0.0 1.76557343242605
4 1 1.76557343242605 1.76557343242605 0.0
ITEM: TIMESTEP energy, energy_weight, force_weight, nsims
78 -6515.2291391540411496 1 1 99
ITEM: NUMBER OF ATOMS
4
ITEM: BOX BOUNDS pp pp pp
0.0 4.457418721501699
0.0 4.457418721501699