ITEM: TIMESTEP energy, energy_weight, force_weight, nsims
0 -52129.7176092295267168 1 1 1000
ITEM: NUMBER OF ATOMS
32
ITEM: BOX BOUNDS xy xz yz pp pp pp
0.0 9.0990921416234052 0.6251736976895894
0.0 8.4684816554988292 0.3350136011391155
0.0 8.2822472348860004 0.1997938360809243
ITEM: ATOMS id type x y z
1 1 0.0915310173542984 0.0406167061328343 0.0282134752056392
2 1 2.184816252820875 2.0153567310649683 0.0109897138559702
3 1 2.1645538719100093 0.0175115524291423 2.03866356172106
4 1 0.2210602605718226 2.1887867873197262 2.1512499459579297
5 1 0.2208575475832279 0.1745987297465509 4.0515237821818326
6 1 2.4474242844970058 2.2546500971104733 4.1014011314797632
7 1 2.2241043141282515 0.2144966996723719 6.2682125917673206
8 1 0.358202478725726 2.2751460135878805 6.2010858061532925
9 1 0.342076712448092 4.1516361049889872 0.063167871435752
10 1 2.4869690603590558 6.222824901684012 0.0425980822031892
11 1 2.4305147750533345 4.13854582845181 2.0709378227459636
12 1 0.6443149644483248 6.3186266261510742 2.0747045887883902
13 1 0.4312108760527259 4.2076789529061252 4.130585286061331
14 1 2.7242446887846886 6.2152978219129347 4.1746170252608792
15 1 2.5662139436265728 4.2621405197539355 6.1678665407188884
16 1 0.7936540146880146 6.418459571299092 6.1373555701302918
17 1 4.0075567697399759 0.0558355786678752 0.0594201545619661
18 1 6.2350453770751271 2.0215996123664608 -0.0587973295699027
19 1 6.212868204817072 0.1278756185483897 2.0056646040631039
20 1 4.3385700104771177 2.1568537475184462 2.1218322320043384
21 1 4.1444317284048022 0.039733953273215 4.0557742314627765
22 1 6.5145363406443018 2.1294770820149802 4.1836330796007761
23 1 6.4366292422607465 0.1714477542098047 6.1656692605274728
24 1 4.5553571994125886 2.3039246233577378 6.1854323588793578
25 1 4.3353583566277738 4.1229779352148173 -0.0720091703589928
26 1 6.4823719667769898 6.1382367436744936 0.0474183500938928
27 1 6.435580557361444 4.2137452506203888 2.0009718827798175
28 1 4.552074256244615 6.259715476139105 2.0657216634374325
29 1 4.4862407177538914 4.2617683052974371 4.0791243710920906
30 1 6.7639941669954258 6.3316763256637785 4.1433233823085853
31 1 6.6025393014733558 4.2787597282475423 6.174378043494956
32 1 4.7969868968463444 6.4083359983193891 6.2494665533758793
ITEM: TIMESTEP energy, energy_weight, force_weight, nsims
1 -52130.1538466572819744 1 1 1000
ITEM: NUMBER OF ATOMS
32
ITEM: BOX BOUNDS xy xz yz pp pp pp
-0.2078381195865089 8.2009073286091177 -0.2078381195865089
0.0 8.3418221456828086 0.0295639204507171
0.0 8.1243908689351212 0.217798987201054
ITEM: ATOMS id type x y z
1 1 -0.0414831892967581 -0.0195063311855374 0.0286474146429521
2 1 1.9824262254243364 2.0937179003405531 0.0134678027434338
3 1 2.0133566193707195 0.137355769650007 1.9640779920777604
4 1 0.0378286934868887 2.1447924238502201 2.1069738408760261
5 1 0.0665700314197605 0.1189726016163559 4.0323504846105278
6 1 2.017303090402923 2.0747060807413922 4.0526549622701698
7 1 2.101259968883749 0.1721722559135403 6.1650965182009889
8 1 0.010260237633009 2.2302411272253053 6.0332847758652122
9 1 -0.026842870465535 4.0071316946142597 -0.0276253662716401
10 1 1.8469214703261436 6.0324734007493319 -0.0621426533173979
11 1 2.0233101706332142 4.046020646358178 2.0846260789128466
12 1 -0.1590219004734571 6.0627746886384513 2.0846951362352324
13 1 -0.0343233523934381 4.1141215596786349 4.0171270010003175
14 1 1.8295528649582106 6.2755944312797469 4.1135610832973155
15 1 1.9182062229370372 4.2955518490471381 6.1296083664463943
16 1 -0.0850906711842383 6.3175510567499966 6.0045008714556616
17 1 4.0226924323821329 0.0326865446270007 0.0838957098689716
18 1 6.0689602738764616 1.944205654382949 0.002006724544627
19 1 6.1043047774432315 0.0189500066139591 2.0206050664265507
20 1 4.0461978927665578 2.0238826057911363 2.0439716270046948
21 1 4.1447231089931664 0.0318607266314133 4.0056066147481664
22 1 6.1270442594746086 2.0527200118926992 4.049744805460918
23 1 6.1109143896264442 0.1276666691022719 6.1026483877869202
24 1 4.0218265479160404 2.241387613665355 6.1698184141740145
25 1 3.9786169452950614 4.1257089477386613 0.0653420384415845
26 1 6.0547879091910932 6.1377468983472463 -0.0372942038447598
27 1 6.0770861401893104 4.1317123239030735 2.1128201525453116
28 1 3.9941660219961542 6.2056646583234647 1.9802577164932452
29 1 4.03018934422676 4.2231920911245169 3.980785788204483
30 1 6.0340541166280168 6.1263501653095762 4.019031358219995
31 1 6.068369710311277 4.1651405519642006 6.0678930560887023
32 1 3.9569362511324102 6.2436846359509772 6.1005522949427338
ITEM: TIMESTEP energy, energy_weight, force_weight, nsims
2 -52129.370653298523392 1 1 1000
ITEM: NUMBER OF ATOMS
32
ITEM: BOX BOUNDS xy xz yz pp pp pp
-0.389666683556459 8.158166894658299 -0.3225902353485785
-0.4901018761965974 8.0960179792547926 -0.0670764482078805
0.0 8.127810355643275 -0.4901018761965974
ITEM: ATOMS id type x y z
1 1 -0.0328866012805883 -0.0614809507072242 0.0192230842721319
2 1 1.9529412087801866 1.993210625479446 0.0323820092379184
3 1 2.0069697575434788 -0.1208645511853087 1.9823753840845016
4 1 -0.1625896120814714 1.960655541745733 2.0886473172655733
5 1 -0.0884749182774844 -0.2522293270593481 3.9826026908341384
6 1 1.922185043361401 1.8538542287689104 4.0800242513189486
7 1 1.951409419227956 -0.2791404863753743 6.0807148432588578
8 1 -0.0803551288259462 1.6107111817218618 6.0737631270616754
9 1 -0.1310421266902243 4.0808118638255184 0.0795338754541117
10 1 1.7531875461541754 5.99747521517898 -0.0764388052706828
11 1 1.9426477898857944 3.980844766314191 2.0923869228102041
12 1 -0.259244713897672 5.866681902336464 2.0789321455474727
13 1 -0.2260632751487826 3.7430159290561256 4.098223231486271
14 1 1.8348729929864376 5.7832927124331778 4.0115945903727175
15 1 1.7450386450786788 3.6828560308485132 6.0079904473207044
16 1 -0.24905321483708 5.689988415255356 6.1639647536075701
17 1 4.0882414710426724 -0.0843009089585702 0.0448492575424396
18 1 6.1105971322095298 2.0650544779568119 0.0610642392019479
19 1 6.0189875014486161 -0.0994442321864261 2.0327263564566764
20 1 3.8908210415640264 1.9642645601557456 1.9862474729379304
21 1 4.1264781780694229 -0.1806729249247951 4.0346474988844294
22 1 6.0920922073855017 1.744809629426336 4.1195538569836208
23 1 5.9849264889015234 -0.4137153069653071 6.0407105734694166
24 1 4.0293931769463409 1.6342141068988092 6.0848770949419819
25 1 3.882819886955009 3.958197833279233 0.0628287868301581
26 1 5.8446207185355404 6.1354918676385806 0.064608777298044
27 1 5.9766339298346792 3.8589635869267318 2.1139443142164769
28 1 3.7879370819625594 6.0165191028229508 2.0792922075462275
29 1 3.795745286960325 3.85008194762265 4.0151773291774857
30 1 5.8467658167150072 5.7661869591180102 4.1067956330683675
31 1 5.8444570916587618 3.614246442595245 6.1069140271592382
32 1 3.8315041262032002 5.7260862685308238 6.108860637739415
ITEM: TIMESTEP energy, energy_weight, force_weight, nsims
3 -52129.4024300124947328 1 1 1000
ITEM: NUMBER OF ATOMS
32
ITEM: BOX BOUNDS xy xz yz pp pp pp
-0.6145380692326224 8.3260290323529525 -0.6145380692326224
0.0 8.4297432051931036 0.1194953371360533
0.0 8.1031477837245571 0.3358852176115325
ITEM: ATOMS id type x y z
1 1 -0.0692964495484518 0.0599883476110466 0.0437756352720152
2 1 1.8333339590542892 1.978145834743904 0.0854971225808562
3 1 2.1510244820481832 0.1599788102037495 2.0768213809878149
4 1 -0.0980206299354111 2.1345104302135445 1.959023490711476
5 1 0.1213317371121049 0.1897469383856728 3.9857187995091702
6 1 2.0076142420885663 2.1629083584402849 4.0775371876761106
7 1 2.1005454512006812 0.2817867741304728 6.1048159231142334
8 1 0.0090182359259803 2.3330543714792582 6.1235779514926687
9 1 -0.3117425699740752 3.9740780899560062 0.051946849497123
10 1 1.54399725146283 6.0735451563886018 -0.0427449148739254
11 1 1.869636879093567 4.0601953249367817 2.10199137863362
12 1 -0.4714548088989412 6.2410470718795397 2.1131153799111169
13 1 -0.1888373549318173 4.1315744699435371 4.0228312163586288
14 1 1.6363447772185498 6.1592000757602321 3.9891107771714376
15 1 1.7651316597161426 4.3305298930104064 6.0065474293114489
16 1 -0.3968195380832221 6.3239802017929412 6.1302525143221232
17 1 4.160518455029246 -0.0548735967724825 -0.0444141633173727
18 1 5.939136239192079 2.0602349253773697 -0.0259300729079186
19 1 6.1507598762304952 0.1165334825598449 2.0882460090480879
20 1 3.9281520113192698 2.098599940147182 2.0161263731433827
21 1 4.1828383514602052 0.0831222052754515 4.0194530140475946
22 1 6.1194217942386953 2.2829023396439858 4.1187206259721121
23 1 6.1778181681783808 0.2889351862769021 6.1103398389583985
24 1 4.0175930763164578 2.2597682284083587 6.0515968794150652
25 1 3.8118626028626688 4.0414446903152346 -0.0596894072044718
26 1 5.7169906356979814 6.1335933350457781 -0.0056292567653535
27 1 5.8107678221401056 4.204437317243297 2.025168675755241
28 1 3.7423870524309032 6.2409270268851902 2.0309818739752852
29 1 3.8695683165227362 4.2898987411104273 4.0684130432716366
30 1 5.6818855864478692 6.2159086487949864 4.0452040073894926
31 1 5.8922006911888056 4.357697998654535 6.0267048197382422
32 1 3.7308479056445822 6.272587751225128 6.1062817825483089
ITEM: TIMESTEP energy, energy_weight, force_weight, nsims
4 -52129.319916489417664 1 1 1000
ITEM: NUMBER OF ATOMS
32
ITEM: BOX BOUNDS xy xz yz pp pp pp
0.0 8.9814297176297498 0.3081853600573885
0.0 8.7277406481575586 0.5660901497176622
0.0 8.2118581044491421 0.5370584304993344
ITEM: ATOMS id type x y z
1 1 -0.0801819261596941 0.0817427345525741 0.0665103023453649
2 1 2.159202923351776 1.9649663025442396 -0.0855330716443214
3 1 2.0862967699123742 0.1729254571870133 2.0412297808810274
4 1 0.2960795122711696 2.1165698401473745 2.1241317731886835
5 1 0.3347937570264642 0.2560143287880554 4.1511476488767203
6 1 2.440145710066366 2.2706574314377903 4.133135759310421
7 1 2.53193550208614 0.3848922562036565 6.1429379380399114
8 1 0.5354320118235588 2.5291611237780898 6.2085235851627161
9 1 0.1051730685141958 4.0732305386452952 -0.0159778123138267
10 1 2.192045974783424 6.1394963064356958 -0.0411898590661065
11 1 2.2983487167612027 4.1610872872146416 2.047264675401987
12 1 0.4527296683724784 6.225595471488 2.0059114003596021
13 1 0.4142305968795663 4.3362148468053805 4.087587045962473
14 1 2.486452790762833 6.4621159371591554 4.1122669643095851
15 1 2.576514220378444 4.4783268391299772 6.2369965607682723
16 1 0.6286745597622658 6.4968014142905908 6.0778507507040471
17 1 4.0600391410346486 0.0557697866758496 0.0694238696008235
18 1 6.2447641973102446 2.1359629433076837 0.0768859850603364
19 1 6.2386474350427817 0.090931667881766 2.1309238010268734
20 1 4.2465054111109204 2.1459828520460018 2.0704960219794737
21 1 4.2527503394262763 0.2513960984034544 4.1514933681029174
22 1 6.4586673335847342 2.2948968919136372 4.0595320539344337
23 1 6.5818925861706008 0.3994225981615076 6.2413143557595916
24 1 4.5797620289671138 2.5404122194673794 6.1839824472175691
25 1 4.2876642969443575 4.0610187865410223 0.0388979294691547
26 1 6.3166214314800762 6.2128686192509326 0.0348831520418895
27 1 6.323644057916221 4.2471182619130303 2.1413339735458839
28 1 4.4896163002459408 6.2181594449577418 2.0000547031595093
29 1 4.4716520439674686 4.4107885911177949 4.0721331501957101
30 1 6.6195096009136148 6.3392620563206297 4.1865432208643263
31 1 6.7404901536997244 4.5806671693314992 6.1255370107165836
32 1 4.7808245506253978 6.4974599587649626 6.096448966939005
ITEM: TIMESTEP energy, energy_weight, force_weight, nsims
5 -52130.1279538245726144 1 1 1000
ITEM: NUMBER OF ATOMS
32
ITEM: BOX BOUNDS xy xz yz pp pp pp
-0.355008819032274 8.1080008914530986 -0.0026026682861564
0.0 8.5979998173271764 -0.3524061507461175
0.0 8.1138629760976198 0.3296145602402429
ITEM: ATOMS id type x y z
1 1 -0.0523452702177062 0.0557159767036076 -0.0377692207674368
2 1 1.9979811115311936 2.0558741663736404 -0.0287466051380163
3 1 1.9631952082266456 0.0815484528943572 1.9930649598596908
4 1 -0.1085630446125176 2.1793224927229509 2.0850112551048294
5 1 -0.1186670700961718 0.0855950511576967 4.0112512508796776
6 1 1.8694118653251728 2.2602505834242188 4.0244589970321689
7 1 1.7855942764771462 0.2058664279435433 6.0218510800170124
8 1 -0.3185644342033541 2.2791388517726743 6.0695711423383365
9 1 0.0414080712326547 4.1486373482284913 -0.022860808935155
10 1 2.018844114812294 6.1131007431584337 0.0396264840026656
11 1 1.9915939854493208 4.2886464040497465 1.9777914241934848
12 1 -0.0703954095486722 6.2152743814686904 2.0415785579800763
13 1 -0.1960079948503909 4.359598266780397 4.0297029866736214
14 1 1.898260454267843 6.4390044214835385 4.1144522854589614
15 1 1.7623008473703384 4.3601979573317023 6.0233472763498064
16 1 -0.2844928927745593 6.4666276219507504 6.0692198120714709
17 1 4.1150677857282325 -0.0668087106646354 0.0368158418677453
18 1 6.0018127169255564 2.0805107854259899 -0.0321422567935131
19 1 5.9936036721745864 0.0760305266882955 2.0986693206524945
20 1 3.9282518939484664 2.1353861234734017 2.0272316254657401
21 1 3.795055171158495 0.1619207100092395 3.999308455965159
22 1 5.9067980216469484 2.2529435450319997 4.0668490627644935
23 1 5.7932891889542866 0.3349493881048142 6.0943565595714215
24 1 3.8126684545100376 2.2752323842176594 6.1348333764139822
25 1 4.0826108252013595 4.15705922695936 -0.0716965274156914
26 1 6.0982960597196279 6.2645324612149169 -0.0361204838106938
27 1 5.941112785760283 4.2284191888775391 2.0769063173780049
28 1 4.0040443413525866 6.2626745079369215 2.0270652912747305
29 1 3.9395416281968818 4.2569406221725892 4.0274473327662657
30 1 5.8939987665059936 6.2910143705156863 4.0599449767581328
31 1 5.815905041053509 4.4240653118664089 6.1260687816272013
32 1 3.758609164043461 6.522858134199825 6.0040809087130613
ITEM: TIMESTEP energy, energy_weight, force_weight, nsims
6 -52127.7875998471645312 1 1 1000
ITEM: NUMBER OF ATOMS
32
ITEM: BOX BOUNDS xy xz yz pp pp pp
-0.575449405560516 8.9652168610647412 -0.575449405560516
0.0 8.8874662897713392 0.7602177798699418
0.0 8.0625438871470951 0.7726565584770332
ITEM: ATOMS id type x y z
1 1 -0.0793543568891357 -0.0380231651203049 0.0028662343518808
2 1 1.8610372938005516 1.9995215943366468 0.0846091418061103
3 1 2.2540505210689328 0.2209398829729507 1.9274575418018236
4 1 -0.0156073943869936 2.2472026391387852 2.0323681691157702
5 1 0.378710956577027 0.4038194051615173 3.961206824685462
6 1 2.2262123348111498 2.3704366687007808 3.9542254679335818
7 1 2.617229943475599 0.5677971669578402 6.044975323590573
8 1 0.4970565057195844 2.5397841962786498 6.0873794669106331
9 1 -0.3010058263572266 4.0149435926152828 0.0388356613956101
10 1 1.5934873417398148 6.1391118487453689 -0.0838528751894959
11 1 1.9301557927747328 4.2233433203389916 1.9352048402229832
12 1 -0.2861709720776196 6.3172739976244135 1.9773292132701604
13 1 0.1274178771048621 4.495872036702143 4.0413952736782495
14 1 1.9460697037082624 6.526658662085076 4.1096817953848301
15 1 2.3393824850161354 4.66770376034627 6.0882494153960574
16 1 0.1910853690791884 6.6534567618830024 5.9953656847985676
17 1 4.0885869582119954 0.0465021244595608 0.0488944911492148
18 1 6.053997641305644 1.9677345217704608 -0.0703126389854211
19 1 6.4253205042980577 0.1761630530810119 1.961843485226117
20 1 4.1768808310497336 2.195720958867625 2.1012642191402193
21 1 4.3900749511170521 0.4253583514314603 4.0056008038368711
22 1 6.3911942910337167 2.3821768062492117 4.1054288034843607
23 1 6.7427783002892624 0.6305908419406484 6.0858620961510725
24 1 4.5286313891656986 2.6547674350977246 6.0012424730379088
25 1 3.8191668235482856 4.1289051975140945 -0.0755323298979601
26 1 5.6757765871358342 6.1020033298095315 -0.0140062512407519
27 1 6.0035255207160443 4.2180057484516231 2.095611569620941
28 1 3.7882827190561934 6.2322063778888586 2.0230793123033881
29 1 4.2621987179425718 4.3978797284539617 4.097354972035772
30 1 6.1299741216284725 6.532177932450451 4.0993552891741727
31 1 6.4274678579984093 4.569867824670653 6.0712914668382201
32 1 4.3116906357391782 6.72472413179971 5.972306809281327
ITEM: TIMESTEP energy, energy_weight, force_weight, nsims
7 -52129.5556419485874368 1 1 1000
ITEM: NUMBER OF ATOMS
32
ITEM: BOX BOUNDS xy xz yz pp pp pp
0.0 8.7368871589768348 0.6190797757826042
0.0 8.2276223008353089 0.0181674922753311
0.0 8.2306596657944038 0.1321375251804509
ITEM: ATOMS id type x y z
1 1 -0.0138773389767156 0.0378802100539296 0.0316559401406119
2 1 2.2193172757003095 2.03398570086053 -0.0618213078157483
3 1 1.9757103138916284 0.0528141138766706 2.112227605505085
4 1 0.2281880551860099 1.9790071254360268 2.0013614428728008
5 1 0.0508132933709759 0.0107160606408058 4.1023813591109741
6 1 2.1271715428693261 2.0964857766520506 4.158280707297183
7 1 2.103286554101738 0.176251152433891 6.117706939172761
8 1 0.1843535067984347 2.0513104998627099 6.1284578268282219
9 1 0.2439268021714241 4.0945883569316477 0.0567685058469172
10 1 2.5336762670556516 6.0258066878438683 -0.0539182284046526
11 1 2.4218666100844901 4.0963638078141198 2.0490416543167478
12 1 0.4165155134324489 6.0700986278344349 2.0779213929520872
13 1 0.395046120895703 4.1981801998390296 4.1188805394770247
14 1 2.4602970740892714 6.1499168510815512 4.1552040867141091
15 1 2.4185942270961212 4.1100896171110675 6.2137900139793123
16 1 0.3929423791220464 6.082189977637058 6.1620907714205577
17 1 4.1374312802537121 0.0017924062911773 0.0468999449076297
18 1 6.1538587814682888 2.0269763627151476 -0.0069244539768328
19 1 6.0613117058951973 -0.005765947720831 2.1026265410049359
20 1 4.2794740367049604 2.0951164604578945 2.0159247720854578
21 1 4.0191313111232398 0.1228769020680759 4.0422440442628469
22 1 6.1545573552553563 2.058486498193429 4.1028702602951217
23 1 6.1425163706553709 0.1859366845429697 6.1455981755822391
24 1 4.2973703469190863 2.0427044121570637 6.1605927913613829
25 1 4.3359673841385096 4.0905544332973189 0.0033712781991094
26 1 6.520643190226453 6.0627020980205693 -0.0144201157344718
27 1 6.4647154703729744 4.0618359824242143 2.0533923810160872
28 1 4.6071730464923304 6.190054531974031 2.0041137754650427
29 1 4.2915038265707226 4.040544822972735 4.0449000781369993
30 1 6.5767926911390698 6.171259123223896 4.0711032062490222
31 1 6.3772296776060094 4.2161019477449378 6.1827489041157353
32 1 4.5298885869140646 6.1260375346813101 6.1606273601319792
ITEM: TIMESTEP energy, energy_weight, force_weight, nsims
8 -52130.1708642797384544 1 1 1000
ITEM: NUMBER OF ATOMS
32
ITEM: BOX BOUNDS xy xz yz pp pp pp
-0.4593069723577812 8.250825830958199 -0.009859736867995
-0.0551155165508008 8.1042334084195655 -0.449447235489786
0.0 8.2007515689901141 -0.0551155165508008
ITEM: ATOMS id type x y z
1 1 0.0427930919528094 -0.0696442154248355 0.0735082567637998
2 1 1.9746783799787584 2.0961843338919106 -0.0262948898308099
3 1 1.9083817625259072 0.0566278735906302 2.1304355266507242
4 1 -0.1735783937728928 1.9697681022437328 2.0459382627844778
5 1 -0.3076040569636489 -0.0255352761315407 4.0541210854204817
6 1 1.8469412019706558 2.0136772312656017 4.0233461250075324
7 1 1.6732915598959196 -0.0076959531527367 6.1596058254225534
8 1 -0.3614937968644779 2.0687223212184298 6.0715469751498956
9 1 0.0317944812422308 4.080707793055816 0.0611120006921143
10 1 2.141413876028607 6.0328367382638195 -0.0768131596461028
11 1 1.9706045862585556 4.0346755801796412 2.0164155571361135
12 1 -0.0723878306786652 6.0540816541654134 2.0351542744712559
13 1 -0.1792330535226376 4.0552974279925369 4.1276375429358501
14 1 1.8333875024235136 6.0113160442332489 4.0148476861565889
15 1 1.79560254085157 3.9808713214284798 6.2035110091726127
16 1 -0.3822343370305499 6.075865459977277 6.1872981233207201
17 1 4.1807660041554113 0.0234447038065869 0.0678940222396692
18 1 6.205815617862692 2.0469342926594831 0.0252861973878241
19 1 6.0637080794742904 -0.0087368309955068 2.122116684259141
20 1 4.0416431582242263 1.948169814837311 1.9997089860397668
21 1 3.8163259751243342 -0.1085428332091874 4.1772299478990052
22 1 5.942454701725139 1.9477856987645136 4.0192555901249207
23 1 5.7896150094366332 -0.0376240598337505 6.1125753352495522
24 1 3.7264235101720612 2.0049492337172659 6.1934675487260709
25 1 4.1299483826198946 4.0476261726423708 0.0866967054370497
26 1 6.1352106826667141 6.0976166550625868 0.0621690775693572
27 1 6.0260973073975217 4.0598898954363571 2.0635009923446268
28 1 3.9901768250646814 6.110762749400311 2.1052009939977849
29 1 3.9785468533009558 4.0059559598615522 4.0328065120175198
30 1 6.0180277876589168 6.0240036056828439 4.0315517970274639
31 1 5.931228985673827 3.9501474731175272 6.1330731137962431
32 1 3.7540432025760166 6.0536014494931409 6.1136299519013244
ITEM: TIMESTEP energy, energy_weight, force_weight, nsims
9 -52130.474933565390528 1 1 1000
ITEM: NUMBER OF ATOMS
32
ITEM: BOX BOUNDS pp pp pp
0.0 8.1846257571082983
0.0 8.1558158744432774
0.0 8.2254097472559682
ITEM: ATOMS id type x y z
1 1 0.0656030492935259 -0.080449783367096 0.0037943815164092
2 1 1.9905386334072208 2.0297036422460257 -0.0601047141051488
3 1 2.116764387221072 0.0342038606142402 1.9958232915658848
4 1 0.0277835305950798 2.0719515840572291 2.1090205579666468
5 1 -0.0778955387181268 -0.0656861254711787 4.1615210353959995
6 1 2.1110392415039745 2.0029183117511793 4.1526861227864727
7 1 1.963807645684505 0.0014305301043774 6.2213643361067268
8 1 -0.0724625841405583 2.0301652614245191 6.1531814470887971
9 1 0.0424536538021207 4.1032578441225835 -0.0522913973862304
10 1 2.1337450302793446 6.0587843409905471 -0.0163002944961372
11 1 2.0773717834521097 4.0060959784471653 2.0440085644062851
12 1 0.0132615491142426 6.0518812584344195 1.9765758327573056
13 1 -0.0508993691208808 4.1176781421701865 4.077268163354856
14 1 2.0937115703136007 6.0782530890644315 4.1503978137947852
15 1 2.0387297098650743 3.9883815463678748 6.1318907964990004
16 1 0.0462038493240278 6.1746597261898755 6.1352418284300319
17 1 4.1399891420518813 0.0277770777051789 0.0512607535448992
18 1 6.2126899595844094 2.0474800585259625 0.0570868112688806
19 1 6.1033474517823203 -0.0705706435983828 1.9756060569481044
20 1 4.0530856042254806 1.964692818329251 2.1340348515490271
21 1 4.0859845259187528 -0.0437306691371774 4.0549320631861825
22 1 6.1472727012955693 2.092044252045508 4.1649543214245037
23 1 6.1273005775230738 0.0771001897874621 6.2122390665331206
24 1 4.0060886646655884 2.0693042062243849 6.1726748456488201
25 1 4.1204999111990546 4.1585909769227438 -0.0192071543008174
26 1 6.0508709052780452 6.2025721904385698 0.0341650619262024
27 1 6.2007805106452407 4.0981188645400968 2.0158192626614642
28 1 4.0615681503601477 6.1941105314688354 1.992058521524566
29 1 4.1458419679307888 4.0576178984891991 4.1095348007113914
30 1 6.1917847884756023 6.1315130134693083 4.0306860228741961
31 1 6.0741013285644447 4.114955730831297 6.1281836043259119
32 1 4.0493329533158464 6.1714006621664472 6.1284476399787984
ITEM: TIMESTEP energy, energy_weight, force_weight, nsims
10 -52129.7802284964272992 1 1 1000
ITEM: NUMBER OF ATOMS
32
ITEM: BOX BOUNDS xy xz yz pp pp pp
-0.2029699133197802 8.946497396648315 -0.2029699133197802
-0.1482245528679205 8.1196984741892209 0.6718056717602152
0.0 8.2297435994385087 -0.1482245528679205
ITEM: ATOMS id type x y z
1 1 0.0058487760640275 -0.0364813539205038 0.0803115988638406
2 1 1.9578987029320944 1.9889603630338876 -0.0510573292909165
3 1 2.2065727885731983 -0.0406820674557515 1.9984500355850116
4 1 0.0527174930019397 2.0735471886744921 2.0742649025461191
5 1 0.3567818057034534 0.0105373510494076 4.0403876822981761
6 1 2.4154529689570335 2.0278725882255197 4.0745032614152885
7 1 2.5875643495871672 -0.10891899431684 6.2349574457039667
8 1 0.4187493154411669 1.9409130580093716 6.1160549331536389
9 1 -0.0917782543696753 3.9712320418537574 -0.0106155462689157
10 1 1.9544656000551052 6.0542282256778872 -0.0485521953392474
11 1 2.1764873795593092 3.976550710283084 2.1259550991198322
12 1 -0.0632377244042777 6.0867786218822166 1.9766716650978172
13 1 0.1761934786514711 4.0519821618706668 4.0898155223564032
14 1 2.1969465703682798 6.0289941734007044 4.0448111694828741
15 1 2.4070665478422155 3.879939635355009 6.1319490369672343
16 1 0.3911641630398158 5.907885216517899 6.2017512532545931
17 1 4.1678886488130163 -0.0605992369978028 0.0668288099248805
18 1 6.1952304158506895 2.0113456389412145 -0.0042662990819489
19 1 6.4408826067870662 -0.0848185937301877 2.0481914288743779
20 1 4.3260862824863837 1.9622867727547928 2.0527293094951085
21 1 4.5165126008139982 -0.1336679963131839 4.061323327040788
22 1 6.5676014927307752 1.9443007335544816 4.1732256196854323
23 1 6.6311382997408668 -0.0763232147374481 6.1745437209148477
24 1 4.5527132429803086 1.923068701732396 6.1347471497910444
25 1 3.997092197493712 4.1160360558974656 0.0246077563366811
26 1 6.0504834147043765 6.1527996325044319 0.0730858839835336
27 1 6.1976919228911438 3.9554527672454572 1.970405538321205
28 1 4.2416822328836643 6.0419820563813325 2.0885764266655427
29 1 4.3292651827591256 3.9247241215933082 4.0992171814444021
30 1 6.3384168744130127 6.096990256497774 4.1696382744504375
31 1 6.6654698558204544 3.862309401820279 6.2306755101091796
32 1 4.4715679015807792 6.0637269626589694 6.1724270308610736
ITEM: TIMESTEP energy, energy_weight, force_weight, nsims
11 -52130.1179082599119296 1 1 1000
ITEM: NUMBER OF ATOMS
32
ITEM: BOX BOUNDS xy xz yz pp pp pp
-0.4817356446923734 8.4378588650256354 -0.4817356446923734
0.0 8.3495150805251424 0.1852867491457355
0.0 8.2156913710940334 0.1851051925591862
ITEM: ATOMS id type x y z
1 1 0.0418297632651326 0.0716415849828616 0.0525303090576381
2 1 1.9430744655271848 2.0406476542489935 -0.0884205568122624
3 1 2.1692821656091699 0.0473926970095509 2.0686856185982272
4 1 -0.0633357426930545 2.1284476933076264 2.0340425127937349
5 1 0.1369396673776394 0.0295148647393759 4.0177828120296724
6 1 2.0186211969888546 2.0707723286566631 4.1931270266863843
7 1 2.1815982439696762 0.1203485473271886 6.2245216221512161
8 1 -0.0505160026864817 2.2473863800398388 6.0825840517476459
9 1 -0.3009223882601713 4.1171316944509648 -0.0050633305920053
10 1 1.6743675490076178 6.1276352521444011 0.0852238312997697
11 1 1.8096654296331232 4.2021318180272775 2.0879966011659836
12 1 -0.353973537807658 6.1467315351778735 2.098603058726066
13 1 -0.1183620917281562 4.1964919884977574 4.0829135269431571
14 1 1.8164874951430928 6.2261736278636875 4.0414021031524303
15 1 1.9798902933195836 4.2326883795095878 6.1666174293677454
16 1 -0.2517795017316138 6.1929464231589933 6.1384055667685447
17 1 4.0899388558420071 -0.0355360202934499 0.0851014174983404
18 1 6.0937973927641451 2.015754267302595 -0.0374035781051798
19 1 6.149448612540394 0.0011017336125433 2.0860256568060582
20 1 4.0554300833820607 2.1250307969936948 2.0699491919311019
21 1 4.3068476048883371 0.1058158932075006 4.0998830374701525
22 1 6.192323044138754 2.0985395970522336 4.197552819627993
23 1 6.4038609608040531 0.1394900230581198 6.132661976931014
24 1 4.0883457723027696 2.1268773896691777 6.1303870519903567
25 1 3.8666392520496858 4.0164290062591776 0.022386115847957
26 1 5.7457580930998012 6.1271283061223541 0.0691375075951676
27 1 5.9312189308765646 4.1764921471866057 2.0644356414519605
28 1 3.8727602100953704 6.2476918540731434 2.0310232462148581
29 1 3.9998568688947702 4.2238131453874699 4.0951516208095393
30 1 5.8875900353024084 6.2134783341960844 4.1029121628786749
31 1 6.050075069476109 4.1329798788208949 6.215363590979857
32 1 3.984828067447487 6.249917720781852 6.230485392517493
ITEM: TIMESTEP energy, energy_weight, force_weight, nsims
12 -52128.7454297569929632 1 1 1000
ITEM: NUMBER OF ATOMS
32
ITEM: BOX BOUNDS xy xz yz pp pp pp
0.0 9.1422338865074373 0.808309460753445
-0.7863408394554868 8.218723724850415 0.0532529979521934
0.0 8.2354755231488568 -0.7863408394554868
ITEM: ATOMS id type x y z
1 1 -0.0048566503490859 -0.0568860458692709 0.0361018540508276
2 1 2.3301694977346501 2.1436424041519593 -0.0762843862233756
3 1 2.1263286571235041 -0.1212435444746183 2.0502891623871977
4 1 0.1546455184036665 1.9234088315089772 2.0096792090349984
5 1 -0.0678935713375383 -0.4447091548993886 4.1441538728624812
6 1 2.307805916162256 1.7354799063154056 4.1441538728624812
7 1 2.1380404809028519 -0.5178841115299302 6.2281187182113858
8 1 0.1640316393847955 1.5054985712286172 6.1225778051920248
9 1 0.4099015307071293 4.178603226711366 -0.056649365481084
10 1 2.6122314189820486 6.0955228375147792 0.0034564290770656
11 1 2.414162240020322 3.9564206305654746 2.1414492880480376
12 1 0.6439832650848726 5.985184075792005 1.986105160349985
13 1 0.4074104069372354 3.6203875399491184 4.1794272380756796
14 1 2.6894949069690722 5.7688936135811738 4.1296388472529309
15 1 2.5420818114930436 3.5475067123462064 6.1687697638538142
16 1 0.5554873602585844 5.5269652096421266 6.1510181963636663
17 1 4.1777397828037888 0.0113353242300887 0.0505518194037446
18 1 6.4227316186916506 2.020043917320705 -0.0458954815429563
19 1 6.1608886000932675 -0.1148750440127763 2.0702091305825907
20 1 4.4127851277855355 1.826774611991284 2.1458182078130679
21 1 4.1614827171506343 -0.3607197922107715 4.0642434067662627
22 1 6.510556216323466 1.7032563632257646 4.1295853166620304
23 1 6.1713196161593329 -0.6148284909475322 6.2416026622854384
24 1 4.4285745665958567 1.4776534514235864 6.1755154418548255
25 1 4.6311431894010254 4.0851618346413554 -0.0499843951401997
26 1 6.8943642135393724 6.1466363581607988 0.0099245715529467
27 1 6.544035093862446 3.8323971763709018 2.0597764301898653
28 1 4.7105747888287396 6.0003562995748441 2.0066897314200953
29 1 4.610624868972157 3.6800091944463578 4.0785401922744491
30 1 6.7582935674841096 5.7785009126574814 4.0447030939924877
31 1 6.591518232243855 3.6020961215527448 6.1031041997699873
32 1 4.7539073757122302 5.5301411506411702 6.1184963035227522
ITEM: TIMESTEP energy, energy_weight, force_weight, nsims
13 -52129.9540212276770048 1 1 1000
ITEM: NUMBER OF ATOMS
32
ITEM: BOX BOUNDS xy xz yz pp pp pp
-0.2221571405258084 8.2376097115044047 -0.2221571405258084
0.0 8.6499133730452566 0.044464200687205