ITEM: TIMESTEP energy, energy_weight, force_weight, nsims
0 -3258.2202173696623504 1 1 990
ITEM: NUMBER OF ATOMS
2
ITEM: BOX BOUNDS xy xz yz pp pp pp
-1.3807821958157001 2.7615643916314002 -1.3807821958157001
0.0 2.5494375844526256 0.0
0.0 4.6521976516876552 0.0
ITEM: ATOMS id type x y z
1 1 -8.8370060531679986e-06 1.6996304951019304 1.1630494129219138
2 1 1.3807910328217532 0.849807089350695 3.489148238765742
ITEM: TIMESTEP energy, energy_weight, force_weight, nsims
1 -3258.2242125204152216 1 1 990
ITEM: NUMBER OF ATOMS
2
ITEM: BOX BOUNDS xy xz yz pp pp pp
-1.3827136927745501 2.7654273855491002 -1.3827136927745501
0.0 2.5494585684472574 0.0
0.0 4.6522370092984682 0.0
ITEM: ATOMS id type x y z
1 1 -8.8493676337045654e-06 1.699644484476451 1.1630592523246173
2 1 1.3827225421421838 0.8498140839708064 3.489177756973851
ITEM: TIMESTEP energy, energy_weight, force_weight, nsims
2 -3258.2281073978360838 1 1 990
ITEM: NUMBER OF ATOMS
2
ITEM: BOX BOUNDS xy xz yz pp pp pp
-1.3846187308709499 2.7692374617418998 -1.3846187308709499
0.0 2.5494375459285218 0.0
0.0 4.6521943200406134 0.0
ITEM: ATOMS id type x y z
1 1 -8.8615598775214526e-06 1.6996304694191122 1.1630485800101531
2 1 1.3846275924308271 0.8498070765094092 3.4891457400304606
ITEM: TIMESTEP energy, energy_weight, force_weight, nsims
3 -3258.2319028182619150 1 1 990
ITEM: NUMBER OF ATOMS
2
ITEM: BOX BOUNDS xy xz yz pp pp pp
-1.38652376896735 2.7730475379347 -1.38652376896735
0.0 2.549417892285494 0.0
0.0 4.6521616063030802 0.0
ITEM: ATOMS id type x y z
1 1 -8.87375212133834e-06 1.6996173669484994 1.1630404015757701
2 1 1.3865326427194713 0.8498005253369946 3.4891212047273098
ITEM: TIMESTEP energy, energy_weight, force_weight, nsims
4 -3258.2355990538057996 1 1 990
ITEM: NUMBER OF ATOMS
2
ITEM: BOX BOUNDS xy xz yz pp pp pp
-1.3884552659262 2.7769105318524 -1.3884552659262
0.0 2.5494537901883696 0.0
0.0 4.6522276367756216 0.0
ITEM: ATOMS id type x y z
1 1 -8.8861137018749066e-06 1.6996412989603322 1.1630569091939054
2 1 1.3884641520399019 0.8498124912280376 3.4891707275817164
ITEM: TIMESTEP energy, energy_weight, force_weight, nsims
5 -3258.2391962405217782 1 1 990
ITEM: NUMBER OF ATOMS
2
ITEM: BOX BOUNDS xy xz yz pp pp pp
-1.3903603040226 2.7807206080452 -1.3903603040226
0.0 2.5494480750740808 0.0
0.0 4.6522123145542134 0.0
ITEM: ATOMS id type x y z
1 1 -8.8983059456917958e-06 1.6996374888719472 1.1630530786385531
2 1 1.3903692023285457 0.8498105862021336 3.4891592359156598
ITEM: TIMESTEP energy, energy_weight, force_weight, nsims
6 -3258.2426961471405776 1 1 990
ITEM: NUMBER OF ATOMS
2
ITEM: BOX BOUNDS xy xz yz pp pp pp
-1.3922653421189999 2.7845306842379998 -1.3922653421189999
0.0 2.5494438966905224 0.0
0.0 4.6522073036690062 0.0
ITEM: ATOMS id type x y z
1 1 -8.9104981895086812e-06 1.6996347032739948 1.1630518259172515
2 1 1.3922742526171894 0.8498091934165278 3.4891554777517544
ITEM: TIMESTEP energy, energy_weight, force_weight, nsims
7 -3258.2460993178865466 1 1 990
ITEM: NUMBER OF ATOMS
2
ITEM: BOX BOUNDS xy xz yz pp pp pp
-1.3941703802153998 2.7883407604307996 -1.3941703802153998
0.0 2.54944408909937 0.0
0.0 4.6522099300815274 0.0
ITEM: ATOMS id type x y z
1 1 -8.9226904333255686e-06 1.69963483154697 1.1630524825203821
2 1 1.3941793029058332 0.8498092575524 3.4891574475611456
ITEM: TIMESTEP energy, energy_weight, force_weight, nsims
8 -3258.2494057527587756 1 1 990
ITEM: NUMBER OF ATOMS
2
ITEM: BOX BOUNDS xy xz yz pp pp pp
-1.3960754183117998 2.7921508366235996 -1.3960754183117998
0.0 2.549451501602603 0.0
0.0 4.6522202966638356 0.0
ITEM: ATOMS id type x y z
1 1 -8.9348826771424576e-06 1.6996397732316054 1.1630550741659589
2 1 1.3960843531944769 0.8498117283709976 3.4891652224978764
ITEM: TIMESTEP energy, energy_weight, force_weight, nsims
9 -3258.252616676262278 1 1 990
ITEM: NUMBER OF ATOMS
2
ITEM: BOX BOUNDS xy xz yz pp pp pp
-1.3979804564081999 2.7959609128163998 -1.3979804564081999
0.0 2.5494634068206806 0.0
0.0 4.6522413022488998 0.0
ITEM: ATOMS id type x y z
1 1 -8.947074920959345e-06 1.6996477100690548 1.163060325562225
2 1 1.3979894034831209 0.8498156967516256 3.4891809766866748
ITEM: TIMESTEP energy, energy_weight, force_weight, nsims
10 -3258.2557330407894370 1 1 990
ITEM: NUMBER OF ATOMS
2
ITEM: BOX BOUNDS xy xz yz pp pp pp
-1.3998590356421499 2.7997180712842998 -1.3998590356421499
0.0 2.5494288751476262 0.0
0.0 4.6521823300483406 0.0
ITEM: ATOMS id type x y z
1 1 -8.959097828056553e-06 1.6996246888800176 1.1630455825120851
2 1 1.3998679947399779 0.8498041862676086 3.4891367475362554
ITEM: TIMESTEP energy, energy_weight, force_weight, nsims
11 -3258.258755662677686 1 1 990
ITEM: NUMBER OF ATOMS
2
ITEM: BOX BOUNDS xy xz yz pp pp pp
-1.40176407373855 2.8035281474771 -1.40176407373855
0.0 2.5494499985275452 0.0
0.0 4.652219464373859 0.0
ITEM: ATOMS id type x y z
1 1 -8.9712900718734402e-06 1.69963877117836 1.1630548660934648
2 1 1.4017730450286221 0.8498112273491848 3.4891645982803944
ITEM: TIMESTEP energy, energy_weight, force_weight, nsims
12 -3258.2616849500941498 1 1 990
ITEM: NUMBER OF ATOMS
2
ITEM: BOX BOUNDS xy xz yz pp pp pp
-1.4036426529724999 2.8072853059449998 -1.4036426529724999
0.0 2.549427728738034 0.0
0.0 4.6521770633059348 0.0
ITEM: ATOMS id type x y z
1 1 -8.9833129789706482e-06 1.6996239246045104 1.1630442658264837
2 1 1.403651636285479 0.8498038041335234 3.489132797479451
ITEM: TIMESTEP energy, energy_weight, force_weight, nsims
13 -3258.2645221275438416 1 1 990
ITEM: NUMBER OF ATOMS
2
ITEM: BOX BOUNDS xy xz yz pp pp pp
-1.4055476910688998 2.8110953821377996 -1.4055476910688998
0.0 2.549455490540706 0.0
0.0 4.6522307359550972 0.0
ITEM: ATOMS id type x y z
1 1 -8.9955052227875392e-06 1.6996424325321836 1.1630576839887743
2 1 1.4055566865741225 0.8498130580085222 3.489173051966323
ITEM: TIMESTEP energy, energy_weight, force_weight, nsims
14 -3258.26726760319616 1 1 990
ITEM: NUMBER OF ATOMS
2
ITEM: BOX BOUNDS xy xz yz pp pp pp
-1.40742627030285 2.8148525406057 -1.40742627030285
0.0 2.549442909404529 0.0
0.0 4.6522053136979614 0.0
ITEM: ATOMS id type x y z
1 1 -9.0075281298847436e-06 1.6996340450812262 1.1630513284244903
2 1 1.4074352778309798 0.849808864323303 3.4891539852734712
ITEM: TIMESTEP energy, energy_weight, force_weight, nsims
15 -3258.2699220573294952 1 1 990
ITEM: NUMBER OF ATOMS
2
ITEM: BOX BOUNDS xy xz yz pp pp pp
-1.4093048495367997 2.8186096990735994 -1.4093048495367997
0.0 2.5494324728120708 0.0
0.0 4.6521885921731512 0.0
ITEM: ATOMS id type x y z
1 1 -9.0195510369819516e-06 1.6996270873306558 1.1630471480432878
2 1 1.4093138690878366 0.8498053854814148 3.4891414441298636
ITEM: TIMESTEP energy, energy_weight, force_weight, nsims
16 -3258.2724863062817348 1 1 990
ITEM: NUMBER OF ATOMS
2
ITEM: BOX BOUNDS xy xz yz pp pp pp
-1.4111834287707499 2.8223668575414998 -1.4111834287707499
0.0 2.5494298705829488 0.0
0.0 4.65218067282395 0.0
ITEM: ATOMS id type x y z
1 1 -9.0315739440791614e-06 1.6996253525056898 1.1630451682059877
2 1 1.4111924603446939 0.849804518077259 3.4891355046179622
ITEM: TIMESTEP energy, energy_weight, force_weight, nsims
17 -3258.2749621187817866 1 1 990
ITEM: NUMBER OF ATOMS
2
ITEM: BOX BOUNDS xy xz yz pp pp pp
-1.4130620080047001 2.8261240160094002 -1.4130620080047001
0.0 2.5494295180979836 0.0
0.0 4.6521816570936334 0.0
ITEM: ATOMS id type x y z
1 1 -9.0435968511763711e-06 1.699625117514961 1.1630454142734084
2 1 1.4130710516015512 0.8498044005830226 3.4891362428202252
ITEM: TIMESTEP energy, energy_weight, force_weight, nsims
18 -3258.2773489506043916 1 1 990
ITEM: NUMBER OF ATOMS
2
ITEM: BOX BOUNDS xy xz yz pp pp pp
-1.4149405872386498 2.8298811744772996 -1.4149405872386498
0.0 2.5494342903242502 0.0
0.0 4.6521888165443058 0.0
ITEM: ATOMS id type x y z
1 1 -9.0556197582735791e-06 1.6996282990093194 1.1630472041360764
2 1 1.4149496428584081 0.8498059913149306 3.4891416124082292
ITEM: TIMESTEP energy, energy_weight, force_weight, nsims
19 -3258.2796480262550176 1 1 990
ITEM: NUMBER OF ATOMS
2
ITEM: BOX BOUNDS xy xz yz pp pp pp
-1.4168191664726 2.8336383329452 -1.4168191664726
0.0 2.549441409980794 0.0
0.0 4.6522050749861048 0.0
ITEM: ATOMS id type x y z
1 1 -9.0676426653707889e-06 1.6996330454622036 1.1630512687465262
2 1 1.4168282341152654 0.84980836451859 3.4891538062395786
ITEM: TIMESTEP energy, energy_weight, force_weight, nsims
20 -3258.2818608423508522 1 1 990
ITEM: NUMBER OF ATOMS
2
ITEM: BOX BOUNDS xy xz yz pp pp pp
-1.41869774570655 2.8373954914131 -1.41869774570655
0.0 2.5494565969444984 0.0
0.0 4.6522276964668158 0.0
ITEM: ATOMS id type x y z
1 1 -9.0796655724679969e-06 1.6996431701370724 1.1630569241167039
2 1 1.4187068253721225 0.849813426807426 3.489170772350112
ITEM: TIMESTEP energy, energy_weight, force_weight, nsims
21 -3258.2839876710040698 1 1 990
ITEM: NUMBER OF ATOMS
2
ITEM: BOX BOUNDS xy xz yz pp pp pp
-1.42054986607805 2.8410997321561 -1.42054986607805
0.0 2.5494267514534906 0.0
0.0 4.6521729619176666 0.0
ITEM: ATOMS id type x y z
1 1 -9.0915191428455273e-06 1.6996232730793964 1.1630432404794169
2 1 1.4205589575971929 0.8498034783740936 3.4891297214382506
ITEM: TIMESTEP energy, energy_weight, force_weight, nsims
22 -3258.2860294646061448 1 1 990
ITEM: NUMBER OF ATOMS
2
ITEM: BOX BOUNDS xy xz yz pp pp pp
-1.422428445312 2.844856890624 -1.422428445312
0.0 2.5494469511016038 0.0
0.0 4.6522143872356622 0.0
ITEM: ATOMS id type x y z
1 1 -9.1035420499427389e-06 1.6996367395545646 1.1630535968089155
2 1 1.42243754885405 0.8498102115470388 3.4891607904267464
ITEM: TIMESTEP energy, energy_weight, force_weight, nsims
23 -3258.2879873116071394 1 1 990
ITEM: NUMBER OF ATOMS
2
ITEM: BOX BOUNDS xy xz yz pp pp pp
-1.4242805656834998 2.8485611313669996 -1.4242805656834998
0.0 2.5494251812787568 0.0
0.0 4.6521760372312492 0.0
ITEM: ATOMS id type x y z
1 1 -9.115395620320264e-06 1.6996222262928916 1.1630440093078125
2 1 1.4242896810791199 0.8498029549858656 3.489132027923437
ITEM: TIMESTEP energy, energy_weight, force_weight, nsims
24 -3258.2898612120061444 1 1 990
ITEM: NUMBER OF ATOMS
2
ITEM: BOX BOUNDS xy xz yz pp pp pp
-1.42615914491745 2.8523182898349 -1.42615914491745
0.0 2.5494562815019406 0.0
0.0 4.652230961860866 0.0
ITEM: ATOMS id type x y z
1 1 -9.1274185274174755e-06 1.699642959841361 1.1630577404652165
2 1 1.4261682723359777 0.8498133216605798 3.48917322139565
ITEM: TIMESTEP energy, energy_weight, force_weight, nsims
25 -3258.2916529345320668 1 1 990
ITEM: NUMBER OF ATOMS
2
ITEM: BOX BOUNDS xy xz yz pp pp pp
-1.4280112652889499 2.8560225305778998 -1.4280112652889499
0.0 2.5494456480555456 0.0
0.0 4.6522093723287076 0.0
ITEM: ATOMS id type x y z
1 1 -9.1392720977950042e-06 1.6996358708544128 1.1630523430821769
2 1 1.4280204045610476 0.8498097772011326 3.4891570292465306
ITEM: TIMESTEP energy, energy_weight, force_weight, nsims
26 -3258.2933626152416764 1 1 990
ITEM: NUMBER OF ATOMS
2
ITEM: BOX BOUNDS xy xz yz pp pp pp
-1.4298633856604499 2.8597267713208998 -1.4298633856604499
0.0 2.5494378374522682 0.0
0.0 4.6521949324045258 0.0
ITEM: ATOMS id type x y z
1 1 -9.151125668172531e-06 1.6996306637688988 1.1630487331011317
2 1 1.4298725367861181 0.8498071736833696 3.4891461993033946
ITEM: TIMESTEP energy, energy_weight, force_weight, nsims
27 -3258.2949916146953910 1 1 990
ITEM: NUMBER OF ATOMS
2
ITEM: BOX BOUNDS xy xz yz pp pp pp
-1.43171550603195 2.8634310120639 -1.43171550603195
0.0 2.549432894142997 0.0
0.0 4.6521877309900974 0.0
ITEM: ATOMS id type x y z
1 1 -9.162979238550065e-06 1.6996273682188388 1.1630469327475244
2 1 1.4317246690111885 0.849805525924158 3.4891407982425728
ITEM: TIMESTEP energy, energy_weight, force_weight, nsims
28 -3258.2965397968378056 1 1 990
ITEM: NUMBER OF ATOMS
2
ITEM: BOX BOUNDS xy xz yz pp pp pp
-1.4335676264034498 2.8671352528068996 -1.4335676264034498
0.0 2.5494337297138726 0.0
0.0 4.6521907241224528 0.0
ITEM: ATOMS id type x y z
1 1 -9.1748328089275937e-06 1.6996279252678722 1.1630476810306132
2 1 1.4335768012362589 0.8498058044460008 3.4891430430918402
ITEM: TIMESTEP energy, energy_weight, force_weight, nsims
29 -3258.2980090664523232 1 1 990
ITEM: NUMBER OF ATOMS
2
ITEM: BOX BOUNDS xy xz yz pp pp pp
-1.4354197467749499 2.8708394935498998 -1.4354197467749499
0.0 2.5494403997285078 0.0
0.0 4.652198270137106 0.0
ITEM: ATOMS id type x y z
1 1 -9.186686379305117e-06 1.699632371958525 1.1630495675342765
2 1 1.4354289334613293 0.8498080277699832 3.4891487026028294
ITEM: TIMESTEP energy, energy_weight, force_weight, nsims
30 -3258.2993994235407626 1 1 990
ITEM: NUMBER OF ATOMS
2
ITEM: BOX BOUNDS xy xz yz pp pp pp
-1.43727186714645 2.8745437342929 -1.43727186714645
0.0 2.5494472106630446 0.0
0.0 4.6522161959105812 0.0
ITEM: ATOMS id type x y z
1 1 -9.1985399496826528e-06 1.6996369125960794 1.1630540489776453
2 1 1.4372810656863997 0.8498102980669654 3.4891621469329356
ITEM: TIMESTEP energy, energy_weight, force_weight, nsims
31 -3258.3007130449996112 1 1 990
ITEM: NUMBER OF ATOMS
2
ITEM: BOX BOUNDS xy xz yz pp pp pp
-1.4391239875179498 2.8782479750358996 -1.4391239875179498
0.0 2.5494599523515986 0.0
0.0 4.6522388449614258 0.0
ITEM: ATOMS id type x y z
1 1 -9.2103935200601797e-06 1.6996454070822976 1.1630597112403565
2 1 1.4391331979114701 0.8498145452693012 3.4891791337210698
ITEM: TIMESTEP energy, energy_weight, force_weight, nsims
32 -3258.3019495226603794 1 1 990
ITEM: NUMBER OF ATOMS
2
ITEM: BOX BOUNDS xy xz yz pp pp pp
-1.4409496490269998 2.8818992980539996 -1.4409496490269998
0.0 2.549431867433298 0.0
0.0 4.6521866350640142 0.0
ITEM: ATOMS id type x y z
1 1 -9.2220777537180325e-06 1.699626683743516 1.1630466587660036
2 1 1.4409588711047534 0.8498051836897822 3.4891399762980102
ITEM: TIMESTEP energy, energy_weight, force_weight, nsims
33 -3258.3031094007478714 1 1 990
ITEM: NUMBER OF ATOMS
2
ITEM: BOX BOUNDS xy xz yz pp pp pp
-1.4428017693985 2.885603538797 -1.4428017693985
0.0 2.54945381135546 0.0
0.0 4.6522248517157606 0.0
ITEM: ATOMS id type x y z
1 1 -9.2339313240955594e-06 1.699641313071771 1.1630562129289399
2 1 1.4428110033298241 0.8498124982836892 3.489168638786821
ITEM: TIMESTEP energy, energy_weight, force_weight, nsims
34 -3258.3041943119351344 1 1 990
ITEM: NUMBER OF ATOMS
2
ITEM: BOX BOUNDS xy xz yz pp pp pp
-1.44462743090755 2.8892548618151 -1.44462743090755
0.0 2.549432261987855 0.0
0.0 4.6521857223390964 0.0
ITEM: ATOMS id type x y z
1 1 -9.2456155577534123e-06 1.6996269467807288 1.1630464305847741
2 1 1.4446366765231078 0.8498053152071262 3.4891392917543222
ITEM: TIMESTEP energy, energy_weight, force_weight, nsims
35 -3258.3052043922780286 1 1 990
ITEM: NUMBER OF ATOMS
2
ITEM: BOX BOUNDS xy xz yz pp pp pp
-1.4464795512790498 2.8929591025580996 -1.4464795512790498
0.0 2.5494636035158638 0.0
0.0 4.6522427497603466 0.0
ITEM: ATOMS id type x y z
1 1 -9.2574691281309409e-06 1.6996478411995966 1.1630606874400866
2 1 1.446488808748178 0.849815762316267 3.4891820623202596
ITEM: TIMESTEP energy, energy_weight, force_weight, nsims
36 -3258.3061411383932864 1 1 990
ITEM: NUMBER OF ATOMS
2
ITEM: BOX BOUNDS xy xz yz pp pp pp
-1.4483052127880998 2.8966104255761996 -1.4483052127880998
0.0 2.5494487694604664 0.0
0.0 4.6522170384136788 0.0
ITEM: ATOMS id type x y z
1 1 -9.2691533617887903e-06 1.6996379517976858 1.1630542596034197
2 1 1.4483144819414615 0.8498108176627806 3.4891627788102588
ITEM: TIMESTEP energy, energy_weight, force_weight, nsims
37 -3258.307005094505712 1 1 990
ITEM: NUMBER OF ATOMS
2
ITEM: BOX BOUNDS xy xz yz pp pp pp
-1.4501308742971497 2.9002617485942994 -1.4501308742971497
0.0 2.5494402869608358 0.0
0.0 4.6522025612354182 0.0
ITEM: ATOMS id type x y z
1 1 -9.2808375954466431e-06 1.6996322967798358 1.1630506403088543
2 1 1.4501401551347453 0.8498079901809998 3.4891519209265632
ITEM: TIMESTEP energy, energy_weight, force_weight, nsims
38 -3258.3077963966707102 1 1 990
ITEM: NUMBER OF ATOMS
2
ITEM: BOX BOUNDS xy xz yz pp pp pp
-1.4519565358062002 2.9039130716123998 -1.4519565358062002
0.0 2.549435306873746 0.0
0.0 4.6521936089851438 0.0
ITEM: ATOMS id type x y z
1 1 -9.2925218291044925e-06 1.6996289767111522 1.1630484022462859
2 1 1.451965828328029 0.849806330162594 3.4891452067388582
ITEM: TIMESTEP energy, energy_weight, force_weight, nsims
39 -3258.3085166775617836 1 1 990
ITEM: NUMBER OF ATOMS
2
ITEM: BOX BOUNDS xy xz yz pp pp pp
-1.45378219731525 2.9075643946305 -1.45378219731525
0.0 2.549436780579467 0.0
0.0 4.6521931659050334 0.0
ITEM: ATOMS id type x y z
1 1 -9.3042060627623435e-06 1.6996299591847762 1.1630482914762583
2 1 1.4537915015213128 0.8498068213946902 3.4891448744287756
ITEM: TIMESTEP energy, energy_weight, force_weight, nsims
40 -3258.3091663453465116 1 1 990
ITEM: NUMBER OF ATOMS
2
ITEM: BOX BOUNDS xy xz yz pp pp pp
-1.4556078588243 2.9112157176486 -1.4556078588243
0.0 2.5494389404164086 0.0
0.0 4.6521984084111212 0.0
ITEM: ATOMS id type x y z
1 1 -9.3158902964201964e-06 1.6996313990806784 1.1630496021027803
2 1 1.4556171747145966 0.84980754133573 3.4891488063083412
ITEM: TIMESTEP energy, energy_weight, force_weight, nsims
41 -3258.3097462163627824 1 1 990
ITEM: NUMBER OF ATOMS
2
ITEM: BOX BOUNDS xy xz yz pp pp pp
-1.45743352033335 2.9148670406666998 -1.45743352033335
0.0 2.5494476489805598 0.0
0.0 4.6522123280482318 0.0
ITEM: ATOMS id type x y z
1 1 -9.3275745300780457e-06 1.6996372048086908 1.1630530820120579
2 1 1.45744284790788 0.8498104441718688 3.4891592460361744
ITEM: TIMESTEP energy, energy_weight, force_weight, nsims
42 -3258.3102566987772662 1 1 990
ITEM: NUMBER OF ATOMS
2
ITEM: BOX BOUNDS xy xz yz pp pp pp
-1.4592591818424002 2.9185183636847998 -1.4592591818424002
0.0 2.5494571240050386 0.0
0.0 4.6522320939297544 0.0
ITEM: ATOMS id type x y z
1 1 -9.3392587637358933e-06 1.69964352151189 1.1630580234824386
2 1 1.4592685211011636 0.8498136024931482 3.4891740704473162
ITEM: TIMESTEP energy, energy_weight, force_weight, nsims
43 -3258.3106994252630102 1 1 990
ITEM: NUMBER OF ATOMS
2
ITEM: BOX BOUNDS xy xz yz pp pp pp
-1.461058384489 2.9221167689779998 -1.461058384489
0.0 2.5494270741457768 0.0
0.0 4.6521764568688076 0.0
ITEM: ATOMS id type x y z
1 1 -9.3507736606740668e-06 1.699623488208276 1.1630441142172021
2 1 1.4610677352626606 0.8498035859375008 3.4891323426516054
ITEM: TIMESTEP energy, energy_weight, force_weight, nsims
44 -3258.3110742597655190 1 1 990
ITEM: NUMBER OF ATOMS
2
ITEM: BOX BOUNDS xy xz yz pp pp pp
-1.4628840459980502 2.9257680919960998 -1.4628840459980502
0.0 2.5494470226992854 0.0
0.0 4.6522111792573426 0.0
ITEM: ATOMS id type x y z
1 1 -9.3624578943319179e-06 1.699636787286505 1.1630527948143357
2 1 1.4628934084559442 0.8498102354127802 3.489158384443007
ITEM: TIMESTEP energy, energy_weight, force_weight, nsims
45 -3258.3113821546767212 1 1 990
ITEM: NUMBER OF ATOMS
2
ITEM: BOX BOUNDS xy xz yz pp pp pp
-1.46468324864465 2.9293664972892998 -1.46468324864465
0.0 2.5494247332243806 0.0
0.0 4.6521708748425966 0.0
ITEM: ATOMS id type x y z
1 1 -9.3739727912700897e-06 1.6996219275890176 1.1630427187106491
2 1 1.4646926226174416 0.8498028056353628 3.489128156131947
ITEM: TIMESTEP energy, energy_weight, force_weight, nsims
46 -3258.3116243344998112 1 1 990
ITEM: NUMBER OF ATOMS
2
ITEM: BOX BOUNDS xy xz yz pp pp pp
-1.4665089101537002 2.9330178203073998 -1.4665089101537002
0.0 2.5494494818388792 0.0
0.0 4.6522208807696838 0.0
ITEM: ATOMS id type x y z
1 1 -9.3856570249279408e-06 1.6996384267181472 1.1630552201924207
2 1 1.4665182958107248 0.849811055120732 3.489165660577263
ITEM: TIMESTEP energy, energy_weight, force_weight, nsims
47 -3258.3118013434609566 1 1 990
ITEM: NUMBER OF ATOMS
2
ITEM: BOX BOUNDS xy xz yz pp pp pp
-1.4683081128003 2.9366162256005998 -1.4683081128003
0.0 2.5494351227200634 0.0
0.0 4.652193297828922 0.0
ITEM: ATOMS id type x y z
1 1 -9.3971719218661125e-06 1.6996288539416372 1.1630483244572305
2 1 1.4683175099722222 0.8498062687784258 3.4891449733716914
ITEM: TIMESTEP energy, energy_weight, force_weight, nsims
48 -3258.3119134536714228 1 1 990
ITEM: NUMBER OF ATOMS
2
ITEM: BOX BOUNDS xy xz yz pp pp pp
-1.4701073154468998 2.9402146308937996 -1.4701073154468998
0.0 2.5494248238724428 0.0
0.0 4.6521722410194998 0.0
ITEM: ATOMS id type x y z
1 1 -9.4086868188042843e-06 1.6996219880212526 1.1630430602548747
2 1 1.4701167241337184 0.84980283585119 3.4891291807646252
ITEM: TIMESTEP energy, energy_weight, force_weight, nsims
49 -3258.3119605290753498 1 1 990
ITEM: NUMBER OF ATOMS
2
ITEM: BOX BOUNDS xy xz yz pp pp pp
-1.47193297695595 2.9438659539118998 -1.47193297695595
0.0 2.5494615127365532 0.0
0.0 4.6522384688222386 0.0
ITEM: ATOMS id type x y z
1 1 -9.4203710524621336e-06 1.6996464473422626 1.1630596172055596
2 1 1.4719423973270026 0.8498150653942906 3.4891788516166788
ITEM: TIMESTEP energy, energy_weight, force_weight, nsims
50 -3258.3119478758599144 1 1 990
ITEM: NUMBER OF ATOMS
2
ITEM: BOX BOUNDS xy xz yz pp pp pp
-1.4737321796025498 2.9474643592050996 -1.4737321796025498
0.0 2.5494594043885574 0.0
0.0 4.6522364800683 0.0
ITEM: ATOMS id type x y z
1 1 -9.4318859494003036e-06 1.6996450417724348 1.163059120017075
2 1 1.4737416114884992 0.8498143626161232 3.4891773600512256
ITEM: TIMESTEP energy, energy_weight, force_weight, nsims
51 -3258.3118711402303234 1 1 990
ITEM: NUMBER OF ATOMS
2
ITEM: BOX BOUNDS xy xz yz pp pp pp
-1.4755313822491498 2.9510627644982996 -1.4755313822491498
0.0 2.549458535003255 0.0
0.0 4.6522353567837538 0.0
ITEM: ATOMS id type x y z
1 1 -9.4434008463384753e-06 1.699644462180378 1.1630588391959385
2 1 1.4755408256499962 0.849814072822877 3.489176517587815
ITEM: TIMESTEP energy, energy_weight, force_weight, nsims
52 -3258.3117327711966028 1 1 990
ITEM: NUMBER OF ATOMS
2
ITEM: BOX BOUNDS xy xz yz pp pp pp
-1.4773305848957502 2.9546611697914998 -1.4773305848957502
0.0 2.549464846288633 0.0
0.0 4.6522440169281874 0.0
ITEM: ATOMS id type x y z
1 1 -9.454915743276649e-06 1.6996486697174272 1.1630610042320468
2 1 1.4773400398114934 0.8498161765712058 3.4891830126961408
ITEM: TIMESTEP energy, energy_weight, force_weight, nsims
53 -3258.3115337211502266 1 1 990
ITEM: NUMBER OF ATOMS
2
ITEM: BOX BOUNDS xy xz yz pp pp pp
-1.4791033286799 2.9582066573598 -1.4791033286799
0.0 2.5494268704125362 0.0
0.0 4.652173410183714 0.0
ITEM: ATOMS id type x y z
1 1 -9.4662613034951396e-06 1.6996233523856808 1.1630433525459285
2 1 1.4791127949412036 0.8498035180268552 3.489130057637786
ITEM: TIMESTEP energy, energy_weight, force_weight, nsims
54 -3258.3112738540357896 1 1 990
ITEM: NUMBER OF ATOMS
2
ITEM: BOX BOUNDS xy xz yz pp pp pp
-1.4809025313265004 2.9618050626530002 -1.4809025313265004
0.0 2.5494359055848856 0.0
0.0 4.652196066060947 0.0
ITEM: ATOMS id type x y z
1 1 -9.4777762004333114e-06 1.6996293758531892 1.1630490165152367
2 1 1.4809120091027006 0.8498065297316966 3.4891470495457098
ITEM: TIMESTEP energy, energy_weight, force_weight, nsims
55 -3258.3109549385831088 1 1 990
ITEM: NUMBER OF ATOMS
2
ITEM: BOX BOUNDS xy xz yz pp pp pp
-1.4827017339731 2.9654034679461998 -1.4827017339731
0.0 2.5494522543043226 0.0
0.0 4.6522228188284398 0.0
ITEM: ATOMS id type x y z
1 1 -9.489291097371483e-06 1.6996402750343572 1.16305570470711
2 1 1.4827112232641972 0.849811979269965 3.4891671141213304
ITEM: TIMESTEP energy, energy_weight, force_weight, nsims
56 -3258.3105775190151690 1 1 990
ITEM: NUMBER OF ATOMS
2
ITEM: BOX BOUNDS xy xz yz pp pp pp
-1.4844744777572498 2.9689489555144996 -1.4844744777572498
0.0 2.549424592304479 0.0
0.0 4.6521737832007562 0.0
ITEM: ATOMS id type x y z
1 1 -9.500636657589979e-06 1.6996218336421158 1.163043445800189
2 1 1.4844839783939074 0.8498027586623628 3.4891303374005674
ITEM: TIMESTEP energy, energy_weight, force_weight, nsims
57 -3258.3101417313887396 1 1 990
ITEM: NUMBER OF ATOMS
2
ITEM: BOX BOUNDS xy xz yz pp pp pp
-1.4862736804038502 2.9725473608076998 -1.4862736804038502
0.0 2.5494498322071358 0.0
0.0 4.652214972505698 0.0
ITEM: ATOMS id type x y z
1 1 -9.512151554528149e-06 1.6996386602977328 1.1630537431264245
2 1 1.4862831925554044 0.8498111719094034 3.4891612293792736
ITEM: TIMESTEP energy, energy_weight, force_weight, nsims
58 -3258.3096486641529736 1 1 990
ITEM: NUMBER OF ATOMS
2
ITEM: BOX BOUNDS xy xz yz pp pp pp
-1.4880464241879998 2.9760928483759996 -1.4880464241879998
0.0 2.5494282732614226 0.0
0.0 4.6521807230957882 0.0
ITEM: ATOMS id type x y z
1 1 -9.5234971147466396e-06 1.6996242876212648 1.163045180773947
2 1 1.4880559476851146 0.849803985640158 3.4891355423218418
ITEM: TIMESTEP energy, energy_weight, force_weight, nsims
59 -3258.3090989975871708 1 1 990
ITEM: NUMBER OF ATOMS
2
ITEM: BOX BOUNDS xy xz yz pp pp pp
-1.4898456268346002 2.9796912536691998 -1.4898456268346002
0.0 2.5494595929344116 0.0
0.0 4.6522366497225268 0.0
ITEM: ATOMS id type x y z
1 1 -9.5350120116848114e-06 1.6996451674700724 1.1630591624306317
2 1 1.4898551618466116 0.8498144254643388 3.4891774872918946
ITEM: TIMESTEP energy, energy_weight, force_weight, nsims
60 -3258.3084935480283094 1 1 990
ITEM: NUMBER OF ATOMS
2
ITEM: BOX BOUNDS xy xz yz pp pp pp
-1.49161837061875 2.9832367412375 -1.49161837061875
0.0 2.5494472699308966 0.0
0.0 4.6522145025963022 0.0
ITEM: ATOMS id type x y z
1 1 -9.5463575719033092e-06 1.6996369521081066 1.1630536256490756
2 1 1.491627916976322 0.8498103178227896 3.4891608769472264
ITEM: TIMESTEP energy, energy_weight, force_weight, nsims
61 -3258.3078325875881092 1 1 990
ITEM: NUMBER OF ATOMS
2
ITEM: BOX BOUNDS xy xz yz pp pp pp
-1.4933911144028998 2.9867822288057994 -1.4933911144028998
0.0 2.5494396541706816 0.0
0.0 4.6522000524589978 0.0
ITEM: ATOMS id type x y z
1 1 -9.5577031321217962e-06 1.6996318749183832 1.1630500131147494
2 1 1.4934006721060318 0.8498077792522982 3.4891500393442484
ITEM: TIMESTEP energy, energy_weight, force_weight, nsims
62 -3258.307117340772038 1 1 990
ITEM: NUMBER OF ATOMS
2
ITEM: BOX BOUNDS xy xz yz pp pp pp
-1.4951638581870502 2.9903277163740998 -1.4951638581870502
0.0 2.5494337978719024 0.0
0.0 4.6521903834381408 0.0
ITEM: ATOMS id type x y z
1 1 -9.5690486923402922e-06 1.699627970706704 1.1630475958595352
2 1 1.4951734272357422 0.8498058271651988 3.4891427875786052
ITEM: TIMESTEP energy, energy_weight, force_weight, nsims
63 -3258.3063480796918156 1 1 990
ITEM: NUMBER OF ATOMS
2
ITEM: BOX BOUNDS xy xz yz pp pp pp
-1.4969366019712 2.9938732039424 -1.4969366019712
0.0 2.5494327268171508 0.0
0.0 4.6521885532257078 0.0
ITEM: ATOMS id type x y z
1 1 -9.5803942525587846e-06 1.6996272566679176 1.1630471383064267
2 1 1.4969461823654526 0.849805470149233 3.4891414149192808
ITEM: TIMESTEP energy, energy_weight, force_weight, nsims
64 -3258.3055252125163862 1 1 990
ITEM: NUMBER OF ATOMS
2
ITEM: BOX BOUNDS xy xz yz pp pp pp
-1.4987093457553498 2.9974186915106996 -1.4987093457553498
0.0 2.5494364835522766 0.0
0.0 4.6521946362769376 0.0
ITEM: ATOMS id type x y z
1 1 -9.5917398127772772e-06 1.6996297611660158 1.1630486590692344
2 1 1.4987189374951626 0.8498067223862606 3.489145977207703
ITEM: TIMESTEP energy, energy_weight, force_weight, nsims
65 -3258.3046505079732924 1 1 990
ITEM: NUMBER OF ATOMS
2
ITEM: BOX BOUNDS xy xz yz pp pp pp
-1.5004820895395 3.0009641790789998 -1.5004820895395
0.0 2.5494421096589526 0.0
0.0 4.6522057060828922 0.0
ITEM: ATOMS id type x y z
1 1 -9.6030853729957678e-06 1.699633511915802 1.163051426520723
2 1 1.5004916926248728 0.8498085977431502 3.4891542795621686
ITEM: TIMESTEP energy, energy_weight, force_weight, nsims
66 -3258.3037235578963192 1 1 990
ITEM: NUMBER OF ATOMS
2
ITEM: BOX BOUNDS xy xz yz pp pp pp
-1.5022548333236498 3.0045096666472997 -1.5022548333236498
0.0 2.5494526415562332 0.0
0.0 4.6522248309720116 0.0
ITEM: ATOMS id type x y z
1 1 -9.614430933214262e-06 1.699640533203124 1.1630562077430029
2 1 1.502264447754583 0.8498121083531092 3.4891686232290088
ITEM: TIMESTEP energy, energy_weight, force_weight, nsims
67 -3258.3027451786201710 1 1 990
ITEM: NUMBER OF ATOMS
2
ITEM: BOX BOUNDS xy xz yz pp pp pp
-1.5040011182453502 3.0080022364906998 -1.5040011182453502
0.0 2.5494202635287468 0.0
0.0 4.6521672349498068 0.0
ITEM: ATOMS id type x y z
1 1 -9.6256071567130768e-06 1.6996189477823934 1.1630418087374517
2 1 1.5040107438525064 0.8498013157463534 3.4891254262123548
ITEM: TIMESTEP energy, energy_weight, force_weight, nsims
68 -3258.3017165946503156 1 1 990
ITEM: NUMBER OF ATOMS
2
ITEM: BOX BOUNDS xy xz yz pp pp pp
-1.5057738620294998 3.0115477240589996 -1.5057738620294998
0.0 2.5494377719930426 0.0
0.0 4.652196762458206 0.0
ITEM: ATOMS id type x y z
1 1 -9.636952716931564e-06 1.6996306201292752 1.1630491906145517
2 1 1.5057834989822168 0.8498071518637674 3.4891475718436542
ITEM: TIMESTEP energy, energy_weight, force_weight, nsims
69 -3258.3006379420430676 1 1 990
ITEM: NUMBER OF ATOMS
2
ITEM: BOX BOUNDS xy xz yz pp pp pp
-1.50754660581365 3.0150932116272999 -1.50754660581365
0.0 2.5494572914896382 0.0
0.0 4.6522345538631146 0.0
ITEM: ATOMS id type x y z
1 1 -9.6482982771500598e-06 1.6996436331686472 1.1630586384657786
2 1 1.5075562541119272 0.8498136583209908 3.4891759153973362
ITEM: TIMESTEP energy, energy_weight, force_weight, nsims
70 -3258.299510309246216 1 1 990
ITEM: NUMBER OF ATOMS
2
ITEM: BOX BOUNDS xy xz yz pp pp pp
-1.5092928907353498 3.0185857814706996 -1.5092928907353498
0.0 2.5494371793145234 0.0
0.0 4.6521961090301388 0.0
ITEM: ATOMS id type x y z
1 1 -9.659474500648873e-06 1.6996302250089984 1.1630490272575349
2 1 1.5093025502098506 0.8498069543055252 3.4891470817726038
ITEM: TIMESTEP energy, energy_weight, force_weight, nsims
71 -3258.2983341044291592 1 1 990
ITEM: NUMBER OF ATOMS
2
ITEM: BOX BOUNDS xy xz yz pp pp pp
-1.5110656345195 3.0221312690389999 -1.5110656345195
0.0 2.549463894298762 0.0
0.0 4.6522446985084844 0.0
ITEM: ATOMS id type x y z
1 1 -9.6708200608673636e-06 1.6996480350554824 1.1630611746271211
2 1 1.5110753053395608 0.8498158592432796 3.4891835238813634
ITEM: TIMESTEP energy, energy_weight, force_weight, nsims
72 -3258.2971100078711970 1 1 990
ITEM: NUMBER OF ATOMS
2
ITEM: BOX BOUNDS xy xz yz pp pp pp
-1.5128119194412 3.0256238388823999 -1.5128119194412
0.0 2.549451159119088 0.0
0.0 4.6522173684086114 0.0
ITEM: ATOMS id type x y z