ITEM: TIMESTEP energy, energy_weight, force_weight, nsims
0 -3253.9100951577934212 1 1 99
ITEM: NUMBER OF ATOMS
2
ITEM: BOX BOUNDS xy xz yz pp pp pp
-1.2315012938727999 2.4630025877455998 -1.2315012938727999
0.0 2.1330218160523828 0.0
0.0 3.8923248604583628 0.0
ITEM: ATOMS id type x y z
1 1 -7.881608280739112e-06 1.422019094481463 0.9730812151145908
2 1 1.2315091754810803 0.7110027215709202 2.919243645343772
ITEM: TIMESTEP energy, energy_weight, force_weight, nsims
1 -3255.6901756372817544 1 1 99
ITEM: NUMBER OF ATOMS
2
ITEM: BOX BOUNDS xy xz yz pp pp pp
-1.2790478696954499 2.5580957393908998 -1.2790478696954499
0.0 2.2153748627060042 0.0
0.0 4.0426021845870084 0.0
ITEM: ATOMS id type x y z
1 1 -8.1859063660022642e-06 1.4769213012703766 1.0106505461467521
2 1 1.279056055601816 0.7384535614356278 3.0319516384402565
ITEM: TIMESTEP energy, energy_weight, force_weight, nsims
2 -3255.8500295591206852 1 1 99
ITEM: NUMBER OF ATOMS
2
ITEM: BOX BOUNDS xy xz yz pp pp pp
-1.2842338067356498 2.5684676134712996 -1.2842338067356498
0.0 2.2243571649564822 0.0
0.0 4.0589930335181235 0.0
ITEM: ATOMS id type x y z
1 1 -8.2190963630593483e-06 1.48290952193294 1.0147482583795309
2 1 1.2842420258320129 0.7414476430235424 3.0442447751385928
ITEM: TIMESTEP energy, energy_weight, force_weight, nsims
3 -3256.0030975478812252 1 1 99
ITEM: NUMBER OF ATOMS
2
ITEM: BOX BOUNDS xy xz yz pp pp pp
-1.2893668260509499 2.5787336521018998 -1.2893668260509499
0.0 2.2332478110615477 0.0
0.0 4.0752166288887182 0.0
ITEM: ATOMS id type x y z
1 1 -8.251947686677072e-06 1.4888366383030288 1.0188041572221795
2 1 1.2893750779986366 0.7444111727585192 3.0564124716665382
ITEM: TIMESTEP energy, energy_weight, force_weight, nsims
4 -3256.1495796060012254 1 1 99
ITEM: NUMBER OF ATOMS
2
ITEM: BOX BOUNDS xy xz yz pp pp pp
-1.29449984536625 2.5889996907325 -1.29449984536625
0.0 2.2421384571666132 0.0
0.0 4.091440224259312 0.0
ITEM: ATOMS id type x y z
1 1 -8.2847990102947975e-06 1.4947637546731174 1.022860056064828
2 1 1.2945081301652604 0.747374702493496 3.068580168194484
ITEM: TIMESTEP energy, energy_weight, force_weight, nsims
5 -3256.2896638990400788 1 1 99
ITEM: NUMBER OF ATOMS
2
ITEM: BOX BOUNDS xy xz yz pp pp pp
-1.2996328646815501 2.5992657293631002 -1.2996328646815501
0.0 2.2510291032716787 0.0
0.0 4.1076638196299058 0.0
ITEM: ATOMS id type x y z
1 1 -8.3176503339125248e-06 1.5006908710432062 1.0269159549074764
2 1 1.2996411823318841 0.7503382322284726 3.0807478647224298
ITEM: TIMESTEP energy, energy_weight, force_weight, nsims
6 -3256.4235339666511208 1 1 99
ITEM: NUMBER OF ATOMS
2
ITEM: BOX BOUNDS xy xz yz pp pp pp
-1.3047129662719499 2.6094259325438998 -1.3047129662719499
0.0 2.2598280932313309 0.0
0.0 4.1237201614399783 0.0
ITEM: ATOMS id type x y z
1 1 -8.350162984090888e-06 1.5065568831208194 1.0309300403599946
2 1 1.3047213164349341 0.7532712101105116 3.0927901210799833
ITEM: TIMESTEP energy, energy_weight, force_weight, nsims
7 -3256.5513700831411370 1 1 99
ITEM: NUMBER OF ATOMS
2
ITEM: BOX BOUNDS xy xz yz pp pp pp
-1.30979306786235 2.6195861357247 -1.30979306786235
0.0 2.2686270831909834 0.0
0.0 4.1397765032500509 0.0
ITEM: ATOMS id type x y z
1 1 -8.3826756342692566e-06 1.5124228951984332 1.0349441258125127
2 1 1.3098014505379843 0.7562041879925504 3.1048323774375377
ITEM: TIMESTEP energy, energy_weight, force_weight, nsims
8 -3256.6733409580501758 1 1 99
ITEM: NUMBER OF ATOMS
2
ITEM: BOX BOUNDS xy xz yz pp pp pp
-1.3148467105902999 2.6296934211805998 -1.3148467105902999
0.0 2.277380245077929 0.0
0.0 4.1557492182798619 0.0
ITEM: ATOMS id type x y z
1 1 -8.415018947727944e-06 1.5182583551298088 1.0389373045699657
2 1 1.3148551256092476 0.7591218899481202 3.1168119137098964
ITEM: TIMESTEP energy, energy_weight, force_weight, nsims
9 -3256.7896148927497962 1 1 99
ITEM: NUMBER OF ATOMS
2
ITEM: BOX BOUNDS xy xz yz pp pp pp
-1.3198738944558 2.6397477889116 -1.3198738944558
0.0 2.2860875788921687 0.0
0.0 4.1716383065294132 0.0
ITEM: ATOMS id type x y z
1 1 -8.4471929244669539e-06 1.5240632629149472 1.0429095766323533
2 1 1.3198823416487244 0.7620243159772212 3.1287287298970594
ITEM: TIMESTEP energy, energy_weight, force_weight, nsims
10 -3256.9003539300315424 1 1 99
ITEM: NUMBER OF ATOMS
2
ITEM: BOX BOUNDS xy xz yz pp pp pp
-1.3249010783212998 2.6498021566425996 -1.3249010783212998
0.0 2.2947949127064074 0.0
0.0 4.1875273947789626 0.0
ITEM: ATOMS id type x y z
1 1 -8.479366901205962e-06 1.5298681707000854 1.0468818486947409
2 1 1.3249095576882011 0.764926742006322 3.140645546084222
ITEM: TIMESTEP energy, energy_weight, force_weight, nsims
11 -3254.1410408307860962 1 1 99
ITEM: NUMBER OF ATOMS
2
ITEM: BOX BOUNDS xy xz yz pp pp pp
-1.2368724429501499 2.4737448859002998 -1.2368724429501499
0.0 2.1423249148118071 0.0
0.0 3.909301096851304 0.0
ITEM: ATOMS id type x y z
1 1 -7.915983634833947e-06 1.4282211801676896 0.977325274212826
2 1 1.2368803589337849 0.7141037346441176 2.9319758226384778
ITEM: TIMESTEP energy, energy_weight, force_weight, nsims
12 -3257.0057171194548576 1 1 99
ITEM: NUMBER OF ATOMS
2
ITEM: BOX BOUNDS xy xz yz pp pp pp
-1.32990180332435 2.6598036066487 -1.32990180332435
0.0 2.3034564184479405 0.0
0.0 4.2033328562482533 0.0
ITEM: ATOMS id type x y z
1 1 -8.5113715412252908e-06 1.5356425263389864 1.0508332140620631
2 1 1.3299103146958911 0.7678138921089542 3.1524996421861902
ITEM: TIMESTEP energy, energy_weight, force_weight, nsims
13 -3257.105856299604966 1 1 99
ITEM: NUMBER OF ATOMS
2
ITEM: BOX BOUNDS xy xz yz pp pp pp
-1.3348760694649498 2.6697521389298996 -1.3348760694649498
0.0 2.3120720961167663 0.0
0.0 4.2190546909372815 0.0
ITEM: ATOMS id type x y z
1 1 -8.5432068445249422e-06 1.5413863298316492 1.0547636727343204
2 1 1.3348846126717944 0.7706857662851172 3.1642910182029613
ITEM: TIMESTEP energy, energy_weight, force_weight, nsims
14 -3257.2009224927310244 1 1 99
ITEM: NUMBER OF ATOMS
2
ITEM: BOX BOUNDS xy xz yz pp pp pp
-1.3398238767430999 2.6796477534861998 -1.3398238767430999
0.0 2.3206419457128864 0.0
0.0 4.2346928988460508 0.0
ITEM: ATOMS id type x y z
1 1 -8.574872811104914e-06 1.547099581178075 1.0586732247115127
2 1 1.339832451615911 0.7735423645348114 3.1760196741345381
ITEM: TIMESTEP energy, energy_weight, force_weight, nsims
15 -3257.2910623672896692 1 1 99
ITEM: NUMBER OF ATOMS
2
ITEM: BOX BOUNDS xy xz yz pp pp pp
-1.3447716840212498 2.6895433680424996 -1.3447716840212498
0.0 2.3292117953090057 0.0
0.0 4.2503311067548184 0.0
ITEM: ATOMS id type x y z
1 1 -8.6065387776848858e-06 1.5528128325245004 1.0625827766887046
2 1 1.3447802905600277 0.7763989627845054 3.187748330066114
ITEM: TIMESTEP energy, energy_weight, force_weight, nsims
16 -3257.3764194624445736 1 1 99
ITEM: NUMBER OF ATOMS
2
ITEM: BOX BOUNDS xy xz yz pp pp pp
-1.3496930324369498 2.6993860648738996 -1.3496930324369498
0.0 2.337735816832419 0.0
0.0 4.2658856878833263 0.0
ITEM: ATOMS id type x y z
1 1 -8.6380354075451802e-06 1.558495531724689 1.0664714219708316
2 1 1.3497016704723577 0.7792402851077306 3.1994142659124947
ITEM: TIMESTEP energy, energy_weight, force_weight, nsims
17 -3257.4571340520151352 1 1 99
ITEM: NUMBER OF ATOMS
2
ITEM: BOX BOUNDS xy xz yz pp pp pp
-1.3545879219902 2.7091758439804 -1.3545879219902
0.0 2.3462140102831262 0.0
0.0 4.2813566422315734 0.0
ITEM: ATOMS id type x y z
1 1 -8.6693627006857952e-06 1.5641476787786392 1.0703391605578934
2 1 1.3545965913529006 0.7820663315044868 3.2110174816736801
ITEM: TIMESTEP energy, energy_weight, force_weight, nsims
18 -3257.5333419199696436 1 1 99
ITEM: NUMBER OF ATOMS
2
ITEM: BOX BOUNDS xy xz yz pp pp pp
-1.3594828115434499 2.7189656230868998 -1.3594828115434499
0.0 2.3546922037338325 0.0
0.0 4.2968275965798197 0.0
ITEM: ATOMS id type x y z
1 1 -8.7006899938264084e-06 1.5697998258325896 1.0742068991449549
2 1 1.3594915122334437 0.784892377901243 3.222620697434865
ITEM: TIMESTEP energy, energy_weight, force_weight, nsims
19 -3257.6051770815483908 1 1 99
ITEM: NUMBER OF ATOMS
2
ITEM: BOX BOUNDS xy xz yz pp pp pp
-1.3643512422342501 2.7287024844685002 -1.3643512422342501
0.0 2.3631245691118328 0.0
0.0 4.3122149241478063 0.0
ITEM: ATOMS id type x y z
1 1 -8.7318479502473442e-06 1.5754214207403028 1.0780537310369516
2 1 1.3643599740822004 0.7877031483715302 3.2341611931108552
ITEM: TIMESTEP energy, energy_weight, force_weight, nsims
20 -3257.6727721914294308 1 1 99
ITEM: NUMBER OF ATOMS
2
ITEM: BOX BOUNDS xy xz yz pp pp pp
-1.3692196729250499 2.7384393458500998 -1.3692196729250499
0.0 2.3715569344898326 0.0
0.0 4.327602251715792 0.0
ITEM: ATOMS id type x y z
1 1 -8.763005906668278e-06 1.5810430156480154 1.081900562928948
2 1 1.3692284359309566 0.7905139188418174 3.245701688786844
ITEM: TIMESTEP energy, energy_weight, force_weight, nsims
21 -3257.7362528293747348 1 1 99
ITEM: NUMBER OF ATOMS
2
ITEM: BOX BOUNDS xy xz yz pp pp pp
-1.3740351858909499 2.7480703717818998 -1.3740351858909499
0.0 2.37989764372242 0.0
0.0 4.3428223257232564 0.0
ITEM: ATOMS id type x y z
1 1 -8.7938251896498532e-06 1.5866035062632532 1.0857055814308141
2 1 1.3740439797161397 0.7932941374591668 3.2571167442924423
ITEM: TIMESTEP energy, energy_weight, force_weight, nsims
22 -3254.3631263957508964 1 1 99
ITEM: NUMBER OF ATOMS
2
ITEM: BOX BOUNDS xy xz yz pp pp pp
-1.2422171331650498 2.4844342663300996 -1.2422171331650498
0.0 2.1515821854985244 0.0
0.0 3.9261937064639838 0.0
ITEM: ATOMS id type x y z
1 1 -7.9501896522091036e-06 1.4343927137076789 0.981548426615996
2 1 1.242225083354702 0.7171894717908458 2.9446452798479878
ITEM: TIMESTEP energy, energy_weight, force_weight, nsims
23 -3257.7957441669796028 1 1 99
ITEM: NUMBER OF ATOMS
2
ITEM: BOX BOUNDS xy xz yz pp pp pp
-1.3788506988568499 2.7577013977136998 -1.3788506988568499
0.0 2.3882383529550069 0.0
0.0 4.3580423997307207 0.0
ITEM: ATOMS id type x y z
1 1 -8.8246444726314302e-06 1.592163996878491 1.0895105999326802
2 1 1.3788595235013226 0.796074356076516 3.2685317997980406
ITEM: TIMESTEP energy, energy_weight, force_weight, nsims
24 -3257.8513660696503392 1 1 99
ITEM: NUMBER OF ATOMS
2
ITEM: BOX BOUNDS xy xz yz pp pp pp
-1.3836662118227499 2.7673324236454998 -1.3836662118227499
0.0 2.3965790621875942 0.0
0.0 4.3732624737381851 0.0
ITEM: ATOMS id type x y z
1 1 -8.855463755613009e-06 1.5977244874937286 1.0933156184345465
2 1 1.3836750672865057 0.7988545746938654 3.2799468553036389
ITEM: TIMESTEP energy, energy_weight, force_weight, nsims
25 -3257.9032382667378444 1 1 99
ITEM: NUMBER OF ATOMS
2
ITEM: BOX BOUNDS xy xz yz pp pp pp
-1.3884552659262 2.7769105318524 -1.3884552659262
0.0 2.4048739433474746 0.0
0.0 4.3883989209653889 0.0
ITEM: ATOMS id type x y z
1 1 -8.8861137018749066e-06 1.6032544259627288 1.0970997302413472
2 1 1.3884641520399019 0.8016195173847458 3.2912991907240419
ITEM: TIMESTEP energy, energy_weight, force_weight, nsims
26 -3257.9514730045098076 1 1 99
ITEM: NUMBER OF ATOMS
2
ITEM: BOX BOUNDS xy xz yz pp pp pp
-1.3932178611671999 2.7864357223343998 -1.3932178611671999
0.0 2.4131229964346486 0.0
0.0 4.403451741412332 0.0
ITEM: ATOMS id type x y z
1 1 -8.9165943114171248e-06 1.6087538122854914 1.100862935353083
2 1 1.3932267777615113 0.8043691841491574 3.3025888060592488
ITEM: TIMESTEP energy, energy_weight, force_weight, nsims
27 -3257.996184978240308 1 1 99
ITEM: NUMBER OF ATOMS
2
ITEM: BOX BOUNDS xy xz yz pp pp pp
-1.3979804564081999 2.7959609128163998 -1.3979804564081999
0.0 2.421372049521823 0.0
0.0 4.4185045618592742 0.0
ITEM: ATOMS id type x y z
1 1 -8.947074920959345e-06 1.6142531986082542 1.1046261404648186
2 1 1.3979894034831209 0.8071188509135686 3.3138784213944557
ITEM: TIMESTEP energy, energy_weight, force_weight, nsims
28 -3258.0374792232246364 1 1 99
ITEM: NUMBER OF ATOMS
2
ITEM: BOX BOUNDS xy xz yz pp pp pp
-1.4027165927867498 2.8054331855734996 -1.4027165927867498
0.0 2.42957527453629 0.0
0.0 4.4334737555259558 0.0
ITEM: ATOMS id type x y z
1 1 -8.977386193781884e-06 1.619722032784779 1.108368438881489
2 1 1.4027255701729436 0.8098532417515112 3.3251053166444669
ITEM: TIMESTEP energy, energy_weight, force_weight, nsims
29 -3258.0754633598230612 1 1 99
ITEM: NUMBER OF ATOMS
2
ITEM: BOX BOUNDS xy xz yz pp pp pp
-1.40742627030285 2.8148525406057 -1.40742627030285
0.0 2.4377326714780514 0.0
0.0 4.4483593224123777 0.0
ITEM: ATOMS id type x y z
1 1 -9.0075281298847436e-06 1.6251603148150666 1.1120898306030944
2 1 1.4074352778309798 0.8125723566629848 3.3362694918092833
ITEM: TIMESTEP energy, energy_weight, force_weight, nsims
30 -3258.1102384777032058 1 1 99
ITEM: NUMBER OF ATOMS
2
ITEM: BOX BOUNDS xy xz yz pp pp pp
-1.4121359478189499 2.8242718956378998 -1.4121359478189499
0.0 2.4458900684198124 0.0
0.0 4.4632448892987986 0.0
ITEM: ATOMS id type x y z
1 1 -9.0376700659876086e-06 1.6305985968453542 1.1158112223246997
2 1 1.4121449854890158 0.8152914715744582 3.3474336669740992
ITEM: TIMESTEP energy, energy_weight, force_weight, nsims
31 -3258.1419052583642042 1 1 99
ITEM: NUMBER OF ATOMS
2
ITEM: BOX BOUNDS xy xz yz pp pp pp
-1.4168191664726 2.8336383329452 -1.4168191664726
0.0 2.454001637288867 0.0
0.0 4.4780468294049598 0.0
ITEM: ATOMS id type x y z
1 1 -9.0676426653707889e-06 1.636006326729404 1.11951170735124
2 1 1.4168282341152654 0.8179953105594628 3.3585351220537194
ITEM: TIMESTEP energy, energy_weight, force_weight, nsims
32 -3258.1705588050072038 1 1 99
ITEM: NUMBER OF ATOMS
2
ITEM: BOX BOUNDS xy xz yz pp pp pp
-1.4215023851262498 2.8430047702524996 -1.4215023851262498
0.0 2.462113206157921 0.0
0.0 4.4928487695111192 0.0
ITEM: ATOMS id type x y z
1 1 -9.0976152647539692e-06 1.6414140566134542 1.1232121923777798
2 1 1.4215114827415145 0.8206991495444674 3.3696365771333397
ITEM: TIMESTEP energy, energy_weight, force_weight, nsims
33 -3254.5766023319301894 1 1 99
ITEM: NUMBER OF ATOMS
2
ITEM: BOX BOUNDS xy xz yz pp pp pp
-1.2475618233799499 2.4951236467598998 -1.2475618233799499
0.0 2.1608394561852422 0.0
0.0 3.9430863160766644 0.0
ITEM: ATOMS id type x y z
1 1 -7.984395669584262e-06 1.4405642472476681 0.985771579019166
2 1 1.2475698077756195 0.7202752089375742 2.9573147370574984
ITEM: TIMESTEP energy, energy_weight, force_weight, nsims
34 -3258.196294356888302 1 1 99
ITEM: NUMBER OF ATOMS
2
ITEM: BOX BOUNDS xy xz yz pp pp pp
-1.42615914491745 2.8523182898349 -1.42615914491745
0.0 2.4701789469542694 0.0
0.0 4.5075670828370198 0.0
ITEM: ATOMS id type x y z
1 1 -9.1274185274174755e-06 1.6467912343512666 1.126891770709255
2 1 1.4261682723359775 0.823387712603003 3.3806753121277646
ITEM: TIMESTEP energy, energy_weight, force_weight, nsims
35 -3258.2192019831327344 1 1 99
ITEM: NUMBER OF ATOMS
2
ITEM: BOX BOUNDS xy xz yz pp pp pp
-1.4307894458462001 2.8615788916924002 -1.4307894458462001
0.0 2.478198859677911 0.0
0.0 4.5222017693826588 0.0
ITEM: ATOMS id type x y z
1 1 -9.1570524533612972e-06 1.6521378599428412 1.1305504423456647
2 1 1.4307986028986537 0.8260609997350698 3.3916513270369939
ITEM: TIMESTEP energy, energy_weight, force_weight, nsims
36 -3258.2393713446977018 1 1 99
ITEM: NUMBER OF ATOMS
2
ITEM: BOX BOUNDS xy xz yz pp pp pp
-1.4354197467749499 2.8708394935498998 -1.4354197467749499
0.0 2.4862187724015522 0.0
0.0 4.536836455928297 0.0
ITEM: ATOMS id type x y z
1 1 -9.1866863793051188e-06 1.6574844855344156 1.1342091139820743
2 1 1.4354289334613293 0.8287342868671362 3.4026273419462228
ITEM: TIMESTEP energy, energy_weight, force_weight, nsims
37 -3258.2568884290267306 1 1 99
ITEM: NUMBER OF ATOMS
2
ITEM: BOX BOUNDS xy xz yz pp pp pp
-1.4400235888412498 2.8800471776824996 -1.4400235888412498
0.0 2.4941928570524868 0.0
0.0 4.5513875156936746 0.0
ITEM: ATOMS id type x y z
1 1 -9.2161509685292664e-06 1.662800558979753 1.1378468789234186
2 1 1.4400328049922184 0.831392298072734 3.4135406367702559
ITEM: TIMESTEP energy, energy_weight, force_weight, nsims
38 -3258.2718360942722030 1 1 99
ITEM: NUMBER OF ATOMS
2
ITEM: BOX BOUNDS xy xz yz pp pp pp
-1.44462743090755 2.8892548618151 -1.44462743090755
0.0 2.5021669417034222 0.0
0.0 4.565938575459053 0.0
ITEM: ATOMS id type x y z
1 1 -9.2456155577534123e-06 1.6681166324250902 1.1414846438647632
2 1 1.4446366765231078 0.8340503092783318 3.4244539315942899
ITEM: TIMESTEP energy, energy_weight, force_weight, nsims
39 -3258.2842962461950264 1 1 99
ITEM: NUMBER OF ATOMS
2
ITEM: BOX BOUNDS xy xz yz pp pp pp
-1.4492048141113998 2.8984096282227996 -1.4492048141113998
0.0 2.51009519828165 0.0
0.0 4.5804060084441698 0.0
ITEM: ATOMS id type x y z
1 1 -9.2749108102578753e-06 1.6734021537241898 1.1451015021110425
2 1 1.4492140890222101 0.8366930445574604 3.4353045063331274
ITEM: TIMESTEP energy, energy_weight, force_weight, nsims
40 -3258.2943468449298052 1 1 99
ITEM: NUMBER OF ATOMS
2
ITEM: BOX BOUNDS xy xz yz pp pp pp
-1.45378219731525 2.9075643946305 -1.45378219731525
0.0 2.518023454859879 0.0
0.0 4.5948734414292876 0.0
ITEM: ATOMS id type x y z
1 1 -9.3042060627623435e-06 1.6786876750232896 1.1487183603573221
2 1 1.4537915015213128 0.8393357798365894 3.4461550810719661
ITEM: TIMESTEP energy, energy_weight, force_weight, nsims
41 -3258.3020658506097788 1 1 99
ITEM: NUMBER OF ATOMS
2
ITEM: BOX BOUNDS xy xz yz pp pp pp
-1.45833312165665 2.9166662433133 -1.45833312165665
0.0 2.5259058833654008 0.0
0.0 4.6092572476341438 0.0
ITEM: ATOMS id type x y z
1 1 -9.3333319785471307e-06 1.6839426441761516 1.152314311908536
2 1 1.4583424549886286 0.8419632391892492 3.4569429357256084
ITEM: TIMESTEP energy, energy_weight, force_weight, nsims
42 -3258.3075267335188982 1 1 99
ITEM: NUMBER OF ATOMS
2
ITEM: BOX BOUNDS xy xz yz pp pp pp
-1.46288404599805 2.9257680919960998 -1.46288404599805
0.0 2.5337883118709224 0.0
0.0 4.623641053839 0.0
ITEM: ATOMS id type x y z
1 1 -9.3624578943319161e-06 1.6891976133290136 1.15591026345975
2 1 1.4628934084559442 0.8445906985419088 3.46773079037925
ITEM: TIMESTEP energy, energy_weight, force_weight, nsims
43 -3258.3108024197167652 1 1 99
ITEM: NUMBER OF ATOMS
2
ITEM: BOX BOUNDS xy xz yz pp pp pp
-1.467408511477 2.9348170229539998 -1.467408511477
0.0 2.541624912303738 0.0
0.0 4.6379412332635956 0.0
ITEM: ATOMS id type x y z
1 1 -9.391414473397024e-06 1.6944220303356382 1.1594853083158989
2 1 1.4674179028914732 0.8472028819680998 3.478455924947697
ITEM: TIMESTEP energy, energy_weight, force_weight, nsims
44 -3254.7817157171693908 1 1 99
ITEM: NUMBER OF ATOMS
2
ITEM: BOX BOUNDS xy xz yz pp pp pp
-1.2528535958699498 2.5057071917398996 -1.2528535958699498
0.0 2.1700050707265466 0.0
0.0 3.959811672128823 0.0
ITEM: ATOMS id type x y z
1 1 -8.0182630135200608e-06 1.4466746764951821 0.9899529180322058
2 1 1.2528616141329634 0.7233303942313648 2.969858754096617
ITEM: TIMESTEP energy, energy_weight, force_weight, nsims
45 -3258.3119622978047118 1 1 99
ITEM: NUMBER OF ATOMS
2
ITEM: BOX BOUNDS xy xz yz pp pp pp
-1.47193297695595 2.9438659539118998 -1.47193297695595
0.0 2.5494615127365532 0.0
0.0 4.6522414126881922 0.0
ITEM: ATOMS id type x y z
1 1 -9.4203710524621336e-06 1.6996464473422626 1.163060353172048
2 1 1.4719423973270026 0.8498150653942906 3.489181059516144
ITEM: TIMESTEP energy, energy_weight, force_weight, nsims
46 -3258.3110758924390212 1 1 99
ITEM: NUMBER OF ATOMS
2
ITEM: BOX BOUNDS xy xz yz pp pp pp
-1.4764309835724498 2.9528619671448996 -1.4764309835724498
0.0 2.557252285096662 0.0
0.0 4.6664579653325262 0.0
ITEM: ATOMS id type x y z
1 1 -9.4491582948075621e-06 1.7048403122026494 1.1666144913331316
2 1 1.4764404327307444 0.8524119728940126 3.4998434739993948
ITEM: TIMESTEP energy, energy_weight, force_weight, nsims
47 -3258.3082072860343032 1 1 99
ITEM: NUMBER OF ATOMS
2
ITEM: BOX BOUNDS xy xz yz pp pp pp
-1.4809025313265002 2.9618050626530002 -1.4809025313265002
0.0 2.5649972293840646 0.0
0.0 4.6805908911966014 0.0
ITEM: ATOMS id type x y z
1 1 -9.4777762004333114e-06 1.7100036249167992 1.1701477227991504
2 1 1.4809120091027006 0.8549936044672656 3.5104431683974512
ITEM: TIMESTEP energy, energy_weight, force_weight, nsims
48 -3258.3034242345188432 1 1 99
ITEM: NUMBER OF ATOMS
2
ITEM: BOX BOUNDS xy xz yz pp pp pp
-1.48537407908055 2.9707481581610998 -1.48537407908055
0.0 2.5727421736714664 0.0
0.0 4.694723817060675 0.0
ITEM: ATOMS id type x y z
1 1 -9.5063941060590622e-06 1.7151669376309482 1.1736809542651687
2 1 1.485383585474656 0.8575752360405184 3.5210428627955058
ITEM: TIMESTEP energy, energy_weight, force_weight, nsims
49 -3258.296786194399374 1 1 99
ITEM: NUMBER OF ATOMS
2
ITEM: BOX BOUNDS xy xz yz pp pp pp
-1.4898456268346 2.9796912536691998 -1.4898456268346
0.0 2.5804871179588686 0.0
0.0 4.7088567429247484 0.0
ITEM: ATOMS id type x y z
1 1 -9.5350120116848114e-06 1.7203302503450978 1.1772141857311871
2 1 1.4898551618466116 0.8601568676137714 3.5316425571935618
ITEM: TIMESTEP energy, energy_weight, force_weight, nsims
50 -3258.2883565678102968 1 1 99
ITEM: NUMBER OF ATOMS
2
ITEM: BOX BOUNDS xy xz yz pp pp pp
-1.4942907157261998 2.9885814314523996 -1.4942907157261998
0.0 2.5881862341735644 0.0
0.0 4.7229060420085612 0.0
ITEM: ATOMS id type x y z
1 1 -9.5634605805908848e-06 1.7254630109130092 1.1807265105021405
2 1 1.4943002791867804 0.8627232232605554 3.5421795315064212
ITEM: TIMESTEP energy, energy_weight, force_weight, nsims
51 -3258.2781914098559356 1 1 99
ITEM: NUMBER OF ATOMS
2
ITEM: BOX BOUNDS xy xz yz pp pp pp
-1.4987093457553498 2.9974186915106996 -1.4987093457553498
0.0 2.5958395223155538 0.0
0.0 4.7368717143121142 0.0
ITEM: ATOMS id type x y z
1 1 -9.5917398127772772e-06 1.7305652193346834 1.1842179285780283
2 1 1.4987189374951626 0.8652743029808704 3.5526537857340856
ITEM: TIMESTEP energy, energy_weight, force_weight, nsims
52 -3258.2663526260525942 1 1 99
ITEM: NUMBER OF ATOMS
2
ITEM: BOX BOUNDS xy xz yz pp pp pp
-1.5031279757845 3.0062559515689999 -1.5031279757845
0.0 2.6034928104575434 0.0
0.0 4.7508373866156672 0.0
ITEM: ATOMS id type x y z
1 1 -9.6200190449636676e-06 1.7356674277563576 1.1877093466539168
2 1 1.503137595803545 0.8678253827011856 3.5631280399617502
ITEM: TIMESTEP energy, energy_weight, force_weight, nsims
53 -3258.2528911013769176 1 1 99
ITEM: NUMBER OF ATOMS
2
ITEM: BOX BOUNDS xy xz yz pp pp pp
-1.50754660581365 3.0150932116272999 -1.50754660581365
0.0 2.6111460985995328 0.0
0.0 4.7648030589192194 0.0
ITEM: ATOMS id type x y z
1 1 -9.6482982771500598e-06 1.740769636178032 1.1912007647298049
2 1 1.5075562541119272 0.8703764624215006 3.5736022941894148
ITEM: TIMESTEP energy, energy_weight, force_weight, nsims
54 -3258.2378646596607724 1 1 99
ITEM: NUMBER OF ATOMS
2
ITEM: BOX BOUNDS xy xz yz pp pp pp
-1.5119387769803498 3.0238775539606997 -1.5119387769803498
0.0 2.6187535586688152 0.0
0.0 4.778685104442511 0.0
ITEM: ATOMS id type x y z
1 1 -9.6764081726167728e-06 1.7458412924534684 1.1946712761106275
2 1 1.5119484533885224 0.8729122662153466 3.5840138283318832
ITEM: TIMESTEP energy, energy_weight, force_weight, nsims
55 -3254.9787107721322172 1 1 99
ITEM: NUMBER OF ATOMS
2
ITEM: BOX BOUNDS xy xz yz pp pp pp
-1.2581453683599497 2.5162907367198994 -1.2581453683599497
0.0 2.179170685267851 0.0
0.0 3.976537028180981 0.0
ITEM: ATOMS id type x y z
1 1 -8.0521303574558587e-06 1.452785105742696 0.9941342570452452
2 1 1.2581534204903071 0.7263855795251552 2.9824027711357362
ITEM: TIMESTEP energy, energy_weight, force_weight, nsims
56 -3258.2213244579907042 1 1 99
ITEM: NUMBER OF ATOMS
2
ITEM: BOX BOUNDS xy xz yz pp pp pp
-1.5163044892846 3.0326089785692001 -1.5163044892846
0.0 2.6263151906653914 0.0
0.0 4.7924835231855428 0.0
ITEM: ATOMS id type x y z
1 1 -9.7043487313638082e-06 1.7508823965826682 1.1981208807963857
2 1 1.5163141936333314 0.8754327940827238 3.5943626423891568
ITEM: TIMESTEP energy, energy_weight, force_weight, nsims
57 -3258.2033215173978534 1 1 99
ITEM: NUMBER OF ATOMS
2
ITEM: BOX BOUNDS xy xz yz pp pp pp
-1.5206702015888498 3.0413404031776996 -1.5206702015888498
0.0 2.6338768226619674 0.0
0.0 4.8062819419285728 0.0
ITEM: ATOMS id type x y z
1 1 -9.73228929011084e-06 1.7559235007118664 1.2015704854821432
2 1 1.5206799338781398 0.8779533219501008 3.6047114564464296
ITEM: TIMESTEP energy, energy_weight, force_weight, nsims
58 -3258.1839059065196124 1 1 99
ITEM: NUMBER OF ATOMS
2
ITEM: BOX BOUNDS xy xz yz pp pp pp
-1.5250359138930998 3.0500718277861996 -1.5250359138930998
0.0 2.6414384546585438 0.0
0.0 4.8200803606716036 0.0
ITEM: ATOMS id type x y z
1 1 -9.7602298488578736e-06 1.7609646048410658 1.2050200901679009
2 1 1.5250456741229486 0.880473849817478 3.6150602705037024
ITEM: TIMESTEP energy, energy_weight, force_weight, nsims
59 -3258.1631267416014452 1 1 99
ITEM: NUMBER OF ATOMS
2
ITEM: BOX BOUNDS xy xz yz pp pp pp
-1.5293751673349 3.0587503346697997 -1.5293751673349
0.0 2.6489542585824136 0.0
0.0 4.833795152634374 0.0
ITEM: ATOMS id type x y z
1 1 -9.7880010708852314e-06 1.7659751568240272 1.2084487881585937
2 1 1.529384955335971 0.8829791017583862 3.6253463644757802
ITEM: TIMESTEP energy, energy_weight, force_weight, nsims
60 -3258.1410304177657054 1 1 99
ITEM: NUMBER OF ATOMS
2
ITEM: BOX BOUNDS xy xz yz pp pp pp
-1.5337144207766998 3.0674288415533995 -1.5337144207766998
0.0 2.656470062506283 0.0
0.0 4.8475099445971432 0.0
ITEM: ATOMS id type x y z
1 1 -9.815772292912584e-06 1.7709857088069886 1.2118774861492858
2 1 1.5337242365489928 0.8854843536992944 3.6356324584478578
ITEM: TIMESTEP energy, energy_weight, force_weight, nsims
61 -3258.1176618335198328 1 1 99
ITEM: NUMBER OF ATOMS
2
ITEM: BOX BOUNDS xy xz yz pp pp pp
-1.53802721535605 3.0760544307120998 -1.53802721535605
0.0 2.6639400383574464 0.0
0.0 4.8611411097796538 0.0
ITEM: ATOMS id type x y z
1 1 -9.8433741782202624e-06 1.7759657086437126 1.2152852774449134
2 1 1.538037058730228 0.8879743297137338 3.64585583233474
ITEM: TIMESTEP energy, energy_weight, force_weight, nsims
62 -3258.0930660234262178 1 1 99
ITEM: NUMBER OF ATOMS
2
ITEM: BOX BOUNDS xy xz yz pp pp pp
-1.5423400099354 3.0846800198707998 -1.5423400099354
0.0 2.6714100142086098 0.0
0.0 4.8747722749621626 0.0
ITEM: ATOMS id type x y z
1 1 -9.8709760635279356e-06 1.7809457084804364 1.2186930687405406
2 1 1.5423498809114634 0.890464305728173 3.6560792062216222
ITEM: TIMESTEP energy, energy_weight, force_weight, nsims
63 -3258.0672870696557766 1 1 99
ITEM: NUMBER OF ATOMS
2
ITEM: BOX BOUNDS xy xz yz pp pp pp
-1.5466263456522998 3.0932526913045995 -1.5466263456522998
0.0 2.6788341619870658 0.0
0.0 4.8883198133644106 0.0
ITEM: ATOMS id type x y z
1 1 -9.898408612115933e-06 1.785895156170923 1.2220799533411027
2 1 1.5466362440609118 0.892939005816143 3.6662398600233082
ITEM: TIMESTEP energy, energy_weight, force_weight, nsims
64 -3258.0403651087522122 1 1 99
ITEM: NUMBER OF ATOMS
2
ITEM: BOX BOUNDS xy xz yz pp pp pp
-1.5509126813692 3.1018253627384 -1.5509126813692
0.0 2.686258309765523 0.0
0.0 4.9018673517666604 0.0
ITEM: ATOMS id type x y z
1 1 -9.925841160703932e-06 1.7908446038614094 1.2254668379416651
2 1 1.5509226072103608 0.8954137059041136 3.6764005138249952
ITEM: TIMESTEP energy, energy_weight, force_weight, nsims
65 -3258.0123429983791538 1 1 99
ITEM: NUMBER OF ATOMS
2
ITEM: BOX BOUNDS xy xz yz pp pp pp
-1.55517255822365 3.1103451164472999 -1.55517255822365
0.0 2.693636629471273 0.0
0.0 4.9153312633886478 0.0
ITEM: ATOMS id type x y z
1 1 -9.9531043725722502e-06 1.7957634994056582 1.228832815847162
2 1 1.5551825113280224 0.897873130065615 3.686498447541486
ITEM: TIMESTEP energy, energy_weight, force_weight, nsims
66 -3255.1678250507334272 1 1 99
ITEM: NUMBER OF ATOMS
2
ITEM: BOX BOUNDS xy xz yz pp pp pp
-1.2634106819875 2.526821363975 -1.2634106819875
0.0 2.1882904717364493 0.0
0.0 3.9931787574528798 0.0
ITEM: ATOMS id type x y z
1 1 -8.0858283646719791e-06 1.4588649828439726 0.99829468936322
2 1 1.2634187678158646 0.7294254888924768 2.99488406808966
ITEM: TIMESTEP energy, energy_weight, force_weight, nsims
67 -3257.9832585621288672 1 1 99
ITEM: NUMBER OF ATOMS
2
ITEM: BOX BOUNDS xy xz yz pp pp pp
-1.5594324350780998 3.1188648701561994 -1.5594324350780998
0.0 2.7010149491770226 0.0
0.0 4.9287951750106344 0.0
ITEM: ATOMS id type x y z
1 1 -9.9803675844405682e-06 1.800682394949907 1.2321987937526586
2 1 1.5594424154456842 0.900332554227116 3.6965963812579758
ITEM: TIMESTEP energy, energy_weight, force_weight, nsims
68 -3257.953150848095902 1 1 99
ITEM: NUMBER OF ATOMS
2
ITEM: BOX BOUNDS xy xz yz pp pp pp
-1.56369231193255 3.1273846238650998 -1.56369231193255
0.0 2.708393268882773 0.0
0.0 4.9422590866326228 0.0
ITEM: ATOMS id type x y z
1 1 -1.0007630796308884e-05 1.8056012904941556 1.2355647716581557
2 1 1.5637023195633462 0.9027919783886176 3.7066943149744672
ITEM: TIMESTEP energy, energy_weight, force_weight, nsims
69 -3257.922056591422006 1 1 99
ITEM: NUMBER OF ATOMS
2
ITEM: BOX BOUNDS xy xz yz pp pp pp
-1.56792572992455 3.1358514598490999 -1.56792572992455
0.0 2.715725760515817 0.0
0.0 4.9556393714743496 0.0
ITEM: ATOMS id type x y z
1 1 -1.0034724671457522e-05 1.810489633892167 1.2389098428685874
2 1 1.5679357646492214 0.90523612662365 3.7167295286057622
ITEM: TIMESTEP energy, energy_weight, force_weight, nsims
70 -3257.8900132075295916 1 1 99
ITEM: NUMBER OF ATOMS
2
ITEM: BOX BOUNDS xy xz yz pp pp pp
-1.5721326890541 3.1442653781081997 -1.5721326890541
0.0 2.723012424076154 0.0
0.0 4.9689360295358158 0.0
ITEM: ATOMS id type x y z
1 1 -1.0061649209886485e-05 1.8153474251439404 1.242234007383954
2 1 1.5721427507033098 0.9076649989322132 3.7267020221518616
ITEM: TIMESTEP energy, energy_weight, force_weight, nsims
71 -3257.8570548464949752 1 1 99
ITEM: NUMBER OF ATOMS
2
ITEM: BOX BOUNDS xy xz yz pp pp pp
-1.5763661070461 3.1527322140921998 -1.5763661070461
0.0 2.7303449157091976 0.0
0.0 4.9823163143775426 0.0
ITEM: ATOMS id type x y z
1 1 -1.0088743085035126e-05 1.820235768541952 1.2455790785943857
2 1 1.576376195789185 0.9101091471672456 3.7367372357831572
ITEM: TIMESTEP energy, energy_weight, force_weight, nsims
72 -3257.8232167468422632 1 1 99
ITEM: NUMBER OF ATOMS
2
ITEM: BOX BOUNDS xy xz yz pp pp pp
-1.5805466073132 3.1610932146263999 -1.5805466073132
0.0 2.737585751196828 0.0
0.0 4.9955293456587482 0.0
ITEM: ATOMS id type x y z
1 1 -1.0115498286744407e-05 1.8250630076474882 1.2488823364146871