ITEM: TIMESTEP energy, energy_weight, force_weight, nsims
0 -26066.5379335912730320 1 1 119
ITEM: NUMBER OF ATOMS
16
ITEM: BOX BOUNDS pp pp pp
0.0 2.9438659539118998
0.0 5.0989259693390601
0.0 18.5828653352053834
ITEM: ATOMS id type x y z
1 1 0.0 1.6996418198154878 1.1500099127018528
2 1 1.47193297695595 4.2491048044850182 1.1500099127018528
3 1 0.0 0.0 3.4761293724688542
4 1 1.47193297695595 2.54946298466953 3.4761293724688542
5 1 0.0 1.6996418198154878 5.8022506905223886
6 1 1.47193297695595 4.2491048044850182 5.8022506905223886
7 1 0.0 0.0 8.1283720085759228
8 1 1.47193297695595 2.54946298466953 8.1283720085759228
9 1 0.0 1.6996418198154878 10.4544933266294606
10 1 1.47193297695595 4.2491048044850182 10.4544933266294606
11 1 0.0 0.0 12.7806146446829968
12 1 1.47193297695595 2.54946298466953 12.7806146446829968
13 1 0.0 1.6996418198154878 15.1067359627365292
14 1 1.47193297695595 4.2491048044850182 15.1067359627365292
15 1 0.0 0.0 17.4328554225035326
16 1 1.47193297695595 2.54946298466953 17.4328554225035326
ITEM: TIMESTEP energy, energy_weight, force_weight, nsims
1 -26066.524845404481312 1 1 119
ITEM: NUMBER OF ATOMS
16
ITEM: BOX BOUNDS pp pp pp
0.0 2.9438659539118998
0.0 5.0989259693390601
0.0 18.6828655177938182
ITEM: ATOMS id type x y z
1 1 0.0 1.6996418198154878 1.2000097936406555
2 1 1.47193297695595 4.2491048044850182 1.2000097936406555
3 1 0.0 0.0 3.5261311746528858
4 1 1.47193297695595 2.54946298466953 3.5261311746528858
5 1 0.0 1.6996418198154878 5.8522506873785646
6 1 1.47193297695595 4.2491048044850182 5.8522506873785646
7 1 0.0 0.0 8.1783720683907948
8 1 1.47193297695595 2.54946298466953 8.1783720683907948
9 1 0.0 1.6996418198154878 10.5044934494030234
10 1 1.47193297695595 4.2491048044850182 10.5044934494030234
11 1 0.0 0.0 12.8306148304152554
12 1 1.47193297695595 2.54946298466953 12.8306148304152554
13 1 0.0 1.6996418198154878 15.1567343431409327
14 1 1.47193297695595 4.2491048044850182 15.1567343431409327
15 1 0.0 0.0 17.4828557241531648
16 1 1.47193297695595 2.54946298466953 17.4828557241531648
ITEM: TIMESTEP energy, energy_weight, force_weight, nsims
2 -26066.4664504067768576 1 1 119
ITEM: NUMBER OF ATOMS
16
ITEM: BOX BOUNDS pp pp pp
0.0 2.9438659539118998
0.0 5.0989259693390601
0.0 18.7828657003822528
ITEM: ATOMS id type x y z
1 1 0.0 1.6996418198154878 1.250009103793289
2 1 1.47193297695595 4.2491048044850182 1.250009103793289
3 1 0.0 0.0 3.5761299058660186
4 1 1.47193297695595 2.54946298466953 3.5761299058660186
5 1 0.0 1.6996418198154878 5.902250707938748
6 1 1.47193297695595 4.2491048044850182 5.902250707938748
7 1 0.0 0.0 8.2283715100114758
8 1 1.47193297695595 2.54946298466953 8.2283715100114758
9 1 0.0 1.6996418198154878 10.5544941903707752
10 1 1.47193297695595 4.2491048044850182 10.5544941903707752
11 1 0.0 0.0 12.8806149924435066
12 1 1.47193297695595 2.54946298466953 12.8806149924435066
13 1 0.0 1.6996418198154878 15.2067357945162325
14 1 1.47193297695595 4.2491048044850182 15.2067357945162325
15 1 0.0 0.0 17.5328565965889638
16 1 1.47193297695595 2.54946298466953 17.5328565965889638
ITEM: TIMESTEP energy, energy_weight, force_weight, nsims
3 -26066.3711436664962096 1 1 119
ITEM: NUMBER OF ATOMS
16
ITEM: BOX BOUNDS pp pp pp
0.0 2.9438659539118998
0.0 5.0989259693390601
0.0 18.8828688268366386
ITEM: ATOMS id type x y z
1 1 0.0 1.6996418198154878 1.3000099872523954
2 1 1.47193297695595 4.2491048044850182 1.3000099872523954
3 1 0.0 0.0 3.6261320611370378
4 1 1.47193297695595 2.54946298466953 3.6261320611370378
5 1 0.0 1.6996418198154878 5.9522522467347976
6 1 1.47193297695595 4.2491048044850182 5.9522522467347976
7 1 0.0 0.0 8.2783743206194398
8 1 1.47193297695595 2.54946298466953 8.2783743206194398
9 1 0.0 1.6996418198154878 10.6044945062172006
10 1 1.47193297695595 4.2491048044850182 10.6044945062172006
11 1 0.0 0.0 12.9306165801018444
12 1 1.47193297695595 2.54946298466953 12.9306165801018444
13 1 0.0 1.6996418198154878 15.2567367656996034
14 1 1.47193297695595 4.2491048044850182 15.2567367656996034
15 1 0.0 0.0 17.5828588395842438
16 1 1.47193297695595 2.54946298466953 17.5828588395842438
ITEM: TIMESTEP energy, energy_weight, force_weight, nsims
4 -26066.2427699924337504 1 1 119
ITEM: NUMBER OF ATOMS
16
ITEM: BOX BOUNDS pp pp pp
0.0 2.9438659539118998
0.0 5.0989259693390601
0.0 18.9828690094250732
ITEM: ATOMS id type x y z
1 1 0.0 1.6996418198154878 1.3500103902039855
2 1 1.47193297695595 4.2491048044850182 1.3500103902039855
3 1 0.0 0.0 3.6761312945940144
4 1 1.47193297695595 2.54946298466953 3.6761312945940144
5 1 0.0 1.6996418198154878 6.0022521989840429
6 1 1.47193297695595 4.2491048044850182 6.0022521989840429
7 1 0.0 0.0 8.3283731033740711
8 1 1.47193297695595 2.54946298466953 8.3283731033740711
9 1 0.0 1.6996418198154878 10.6544959060510004
10 1 1.47193297695595 4.2491048044850182 10.6544959060510004
11 1 0.0 0.0 12.9806168104410294
12 1 1.47193297695595 2.54946298466953 12.9806168104410294
13 1 0.0 1.6996418198154878 15.3067377148310584
14 1 1.47193297695595 4.2491048044850182 15.3067377148310584
15 1 0.0 0.0 17.6328586192210858
16 1 1.47193297695595 2.54946298466953 17.6328586192210858
ITEM: TIMESTEP energy, energy_weight, force_weight, nsims
5 -26066.0876164000110288 1 1 119
ITEM: NUMBER OF ATOMS
16
ITEM: BOX BOUNDS pp pp pp
0.0 2.9438659539118998
0.0 5.0989259693390601
0.0 19.0828691920135043
ITEM: ATOMS id type x y z
1 1 0.0 1.6996418198154878 1.4000108816982322
2 1 1.47193297695595 4.2491048044850182 1.4000108816982322
3 1 0.0 0.0 3.726132488154073
4 1 1.47193297695595 2.54946298466953 3.726132488154073
5 1 0.0 1.6996418198154878 6.0522521863229928
6 1 1.47193297695595 4.2491048044850182 6.0522521863229928
7 1 0.0 0.0 8.3783737927788327
8 1 1.47193297695595 2.54946298466953 8.3783737927788327
9 1 0.0 1.6996418198154878 10.7044953992346716
10 1 1.47193297695595 4.2491048044850182 10.7044953992346716
11 1 0.0 0.0 13.0306170056905142
12 1 1.47193297695595 2.54946298466953 13.0306170056905142
13 1 0.0 1.6996418198154878 15.3567367038594327
14 1 1.47193297695595 4.2491048044850182 15.3567367038594327
15 1 0.0 0.0 17.6828583103152752
16 1 1.47193297695595 2.54946298466953 17.6828583103152752
ITEM: TIMESTEP energy, energy_weight, force_weight, nsims
6 -26065.9127427032035488 1 1 119
ITEM: NUMBER OF ATOMS
16
ITEM: BOX BOUNDS pp pp pp
0.0 2.9438659539118998
0.0 5.0989259693390601
0.0 19.182869374601939
ITEM: ATOMS id type x y z
1 1 0.0 1.6996418198154878 1.4500119948698485
2 1 1.47193297695595 4.2491048044850182 1.4500119948698485
3 1 0.0 0.0 3.7761324900948918
4 1 1.47193297695595 2.54946298466953 3.7761324900948918
5 1 0.0 1.6996418198154878 6.1022529853199359
6 1 1.47193297695595 4.2491048044850182 6.1022529853199359
7 1 0.0 0.0 8.4283734805449786
8 1 1.47193297695595 2.54946298466953 8.4283734805449786
9 1 0.0 1.6996418198154878 10.7544958940569604
10 1 1.47193297695595 4.2491048044850182 10.7544958940569604
11 1 0.0 0.0 13.0806163892819996
12 1 1.47193297695595 2.54946298466953 13.0806163892819996
13 1 0.0 1.6996418198154878 15.4067368845070476
14 1 1.47193297695595 4.2491048044850182 15.4067368845070476
15 1 0.0 0.0 17.7328573797320922
16 1 1.47193297695595 2.54946298466953 17.7328573797320922
ITEM: TIMESTEP energy, energy_weight, force_weight, nsims
7 -26065.7240497902857904 1 1 119
ITEM: NUMBER OF ATOMS
16
ITEM: BOX BOUNDS pp pp pp
0.0 2.9438659539118998
0.0 5.0989259693390601
0.0 19.2828695571903737
ITEM: ATOMS id type x y z
1 1 0.0 1.6996418198154878 1.5000124945668832
2 1 1.47193297695595 4.2491048044850182 1.5000124945668832
3 1 0.0 0.0 3.826132045268138
4 1 1.47193297695595 2.54946298466953 3.826132045268138
5 1 0.0 1.6996418198154878 6.1522535242563494
6 1 1.47193297695595 4.2491048044850182 6.1522535242563494
7 1 0.0 0.0 8.4783750032445582
8 1 1.47193297695595 2.54946298466953 8.4783750032445582
9 1 0.0 1.6996418198154878 10.804494553945812
10 1 1.47193297695595 4.2491048044850182 10.804494553945812
11 1 0.0 0.0 13.1306160329340234
12 1 1.47193297695595 2.54946298466953 13.1306160329340234
13 1 0.0 1.6996418198154878 15.4567375119222312
14 1 1.47193297695595 4.2491048044850182 15.4567375119222312
15 1 0.0 0.0 17.7828570626234886
16 1 1.47193297695595 2.54946298466953 17.7828570626234886
ITEM: TIMESTEP energy, energy_weight, force_weight, nsims
8 -26065.5264223466620032 1 1 119
ITEM: NUMBER OF ATOMS
16
ITEM: BOX BOUNDS pp pp pp
0.0 2.9438659539118998
0.0 5.0989259693390601
0.0 19.3828726836447594
ITEM: ATOMS id type x y z
1 1 0.0 1.6996418198154878 1.5500115010529728
2 1 1.47193297695595 4.2491048044850182 1.5500115010529728
3 1 0.0 0.0 3.876132607231765
4 1 1.47193297695595 2.54946298466953 3.876132607231765
5 1 0.0 1.6996418198154878 6.2022537134105571
6 1 1.47193297695595 4.2491048044850182 6.2022537134105571
7 1 0.0 0.0 8.5283748195893488
8 1 1.47193297695595 2.54946298466953 8.5283748195893488
9 1 0.0 1.6996418198154878 10.8544978640554088
10 1 1.47193297695595 4.2491048044850182 10.8544978640554088
11 1 0.0 0.0 13.1806189702342032
12 1 1.47193297695595 2.54946298466953 13.1806189702342032
13 1 0.0 1.6996418198154878 15.5067400764129958
14 1 1.47193297695595 4.2491048044850182 15.5067400764129958
15 1 0.0 0.0 17.8328611825917848
16 1 1.47193297695595 2.54946298466953 17.8328611825917848
ITEM: TIMESTEP energy, energy_weight, force_weight, nsims
9 -26065.3241817855669072 1 1 119
ITEM: NUMBER OF ATOMS
16
ITEM: BOX BOUNDS pp pp pp
0.0 2.9438659539118998
0.0 5.0989259693390601
0.0 19.482872866233194
ITEM: ATOMS id type x y z
1 1 0.0 1.6996418198154878 1.6000133995538216
2 1 1.47193297695595 4.2491048044850182 1.6000133995538216
3 1 0.0 0.0 3.9261339879592878
4 1 1.47193297695595 2.54946298466953 3.9261339879592878
5 1 0.0 1.6996418198154878 6.252254576364753
6 1 1.47193297695595 4.2491048044850182 6.252254576364753
7 1 0.0 0.0 8.57837516477022
8 1 1.47193297695595 2.54946298466953 8.57837516477022
9 1 0.0 1.6996418198154878 10.9044977014629722
10 1 1.47193297695595 4.2491048044850182 10.9044977014629722
11 1 0.0 0.0 13.2306182898684384
12 1 1.47193297695595 2.54946298466953 13.2306182898684384
13 1 0.0 1.6996418198154878 15.5567388782739062
14 1 1.47193297695595 4.2491048044850182 15.5567388782739062
15 1 0.0 0.0 17.8828594666793706
16 1 1.47193297695595 2.54946298466953 17.8828594666793706
ITEM: TIMESTEP energy, energy_weight, force_weight, nsims
10 -26065.1212949580876736 1 1 119
ITEM: NUMBER OF ATOMS
16
ITEM: BOX BOUNDS pp pp pp
0.0 2.9438659539118998
0.0 5.0989259693390601
0.0 19.5828730488216252
ITEM: ATOMS id type x y z
1 1 0.0 1.6996418198154878 1.6500137173476126
2 1 1.47193297695595 4.2491048044850182 1.6500137173476126
3 1 0.0 0.0 3.9761339598550114
4 1 1.47193297695595 2.54946298466953 3.9761339598550114
5 1 0.0 1.6996418198154878 6.3022542023624109
6 1 1.47193297695595 4.2491048044850182 6.3022542023624109
7 1 0.0 0.0 8.6283764031571124
8 1 1.47193297695595 2.54946298466953 8.6283764031571124
9 1 0.0 1.6996418198154878 10.9544966456645128
10 1 1.47193297695595 4.2491048044850182 10.9544966456645128
11 1 0.0 0.0 13.2806188464592143
12 1 1.47193297695595 2.54946298466953 13.2806188464592143
13 1 0.0 1.6996418198154878 15.6067390889666164
14 1 1.47193297695595 4.2491048044850182 15.6067390889666164
15 1 0.0 0.0 17.9328593314740096
16 1 1.47193297695595 2.54946298466953 17.9328593314740096
ITEM: TIMESTEP energy, energy_weight, force_weight, nsims
11 -26064.9213619081201616 1 1 119
ITEM: NUMBER OF ATOMS
16
ITEM: BOX BOUNDS pp pp pp
0.0 2.9438659539118998
0.0 5.0989259693390601
0.0 19.6828732314100598
ITEM: ATOMS id type x y z
1 1 0.0 1.6996418198154878 1.7000136975715328
2 1 1.47193297695595 4.2491048044850182 1.7000136975715328
3 1 0.0 0.0 4.0261336877722504
4 1 1.47193297695595 2.54946298466953 4.0261336877722504
5 1 0.0 1.6996418198154878 6.3522556462602911
6 1 1.47193297695595 4.2491048044850182 6.3522556462602911
7 1 0.0 0.0 8.6783756364610092
8 1 1.47193297695595 2.54946298466953 8.6783756364610092
9 1 0.0 1.6996418198154878 11.0044975949490507
10 1 1.47193297695595 4.2491048044850182 11.0044975949490507
11 1 0.0 0.0 13.3306175851497635
12 1 1.47193297695595 2.54946298466953 13.3306175851497635
13 1 0.0 1.6996418198154878 15.6567395436378104
14 1 1.47193297695595 4.2491048044850182 15.6567395436378104
15 1 0.0 0.0 17.9828595338385284
16 1 1.47193297695595 2.54946298466953 17.9828595338385284
ITEM: TIMESTEP energy, energy_weight, force_weight, nsims
12 -26064.7274059378287344 1 1 119
ITEM: NUMBER OF ATOMS
16
ITEM: BOX BOUNDS pp pp pp
0.0 2.9438659539118998
0.0 5.0989259693390601
0.0 19.782873413998491
ITEM: ATOMS id type x y z
1 1 0.0 1.6996418198154878 1.750012765075721
2 1 1.47193297695595 4.2491048044850182 1.750012765075721
3 1 0.0 0.0 4.0761344565645397
4 1 1.47193297695595 2.54946298466953 4.0761344565645397
5 1 0.0 1.6996418198154878 6.4022561480533584
6 1 1.47193297695595 4.2491048044850182 6.4022561480533584
7 1 0.0 0.0 8.7283758612548362
8 1 1.47193297695595 2.54946298466953 8.7283758612548362
9 1 0.0 1.6996418198154878 11.0544975527436566
10 1 1.47193297695595 4.2491048044850182 11.0544975527436566
11 1 0.0 0.0 13.3806172659451317
12 1 1.47193297695595 2.54946298466953 13.3806172659451317
13 1 0.0 1.6996418198154878 15.7067389574339522
14 1 1.47193297695595 4.2491048044850182 15.7067389574339522
15 1 0.0 0.0 18.032860648922771
16 1 1.47193297695595 2.54946298466953 18.032860648922771
ITEM: TIMESTEP energy, energy_weight, force_weight, nsims
13 -26064.5418021782243152 1 1 119
ITEM: NUMBER OF ATOMS
16
ITEM: BOX BOUNDS pp pp pp
0.0 2.9438659539118998
0.0 5.0989259693390601
0.0 19.8828765404528802
ITEM: ATOMS id type x y z
1 1 0.0 1.6996418198154878 1.8000147077960856
2 1 1.47193297695595 4.2491048044850182 1.8000147077960856
3 1 0.0 0.0 4.1261362937155157
4 1 1.47193297695595 2.54946298466953 4.1261362937155157
5 1 0.0 1.6996418198154878 6.4522558913472938
6 1 1.47193297695595 4.2491048044850182 6.4522558913472938
7 1 0.0 0.0 8.7783774772667248
8 1 1.47193297695595 2.54946298466953 8.7783774772667248
9 1 0.0 1.6996418198154878 11.1044990631861555
10 1 1.47193297695595 4.2491048044850182 11.1044990631861555
11 1 0.0 0.0 13.4306206491055864
12 1 1.47193297695595 2.54946298466953 13.4306206491055864
13 1 0.0 1.6996418198154878 15.7567402467373618
14 1 1.47193297695595 4.2491048044850182 15.7567402467373618
15 1 0.0 0.0 18.0828618326567927
16 1 1.47193297695595 2.54946298466953 18.0828618326567927
ITEM: TIMESTEP energy, energy_weight, force_weight, nsims
14 -26064.36633146733584 1 1 119
ITEM: NUMBER OF ATOMS
16
ITEM: BOX BOUNDS pp pp pp
0.0 2.9438659539118998
0.0 5.0989259693390601
0.0 19.9828767230413114
ITEM: ATOMS id type x y z
1 1 0.0 1.6996418198154878 1.8500147270191646
2 1 1.47193297695595 4.2491048044850182 1.8500147270191646
3 1 0.0 0.0 4.1761354799784947
4 1 1.47193297695595 2.54946298466953 4.1761354799784947
5 1 0.0 1.6996418198154878 6.5022562329378246
6 1 1.47193297695595 4.2491048044850182 6.5022562329378246
7 1 0.0 0.0 8.8283769858971546
8 1 1.47193297695595 2.54946298466953 8.8283769858971546
9 1 0.0 1.6996418198154878 11.1544997371441568
10 1 1.47193297695595 4.2491048044850182 11.1544997371441568
11 1 0.0 0.0 13.4806204901034886
12 1 1.47193297695595 2.54946298466953 13.4806204901034886
13 1 0.0 1.6996418198154878 15.8067412430628168
14 1 1.47193297695595 4.2491048044850182 15.8067412430628168
15 1 0.0 0.0 18.1328619960221467
16 1 1.47193297695595 2.54946298466953 18.1328619960221467
ITEM: TIMESTEP energy, energy_weight, force_weight, nsims
15 -26064.2021236148539168 1 1 119
ITEM: NUMBER OF ATOMS
16
ITEM: BOX BOUNDS pp pp pp
0.0 2.9438659539118998
0.0 5.0989259693390601
0.0 20.082876905629746
ITEM: ATOMS id type x y z
1 1 0.0 1.6996418198154878 1.900014876301653
2 1 1.47193297695595 4.2491048044850182 1.900014876301653
3 1 0.0 0.0 4.2261361850608141
4 1 1.47193297695595 2.54946298466953 4.2261361850608141
5 1 0.0 1.6996418198154878 6.552257493819976
6 1 1.47193297695595 4.2491048044850182 6.552257493819976
7 1 0.0 0.0 8.878378802579137
8 1 1.47193297695595 2.54946298466953 8.878378802579137
9 1 0.0 1.6996418198154878 11.2044981030506072
10 1 1.47193297695595 4.2491048044850182 11.2044981030506072
11 1 0.0 0.0 13.53061941180977
12 1 1.47193297695595 2.54946298466953 13.53061941180977
13 1 0.0 1.6996418198154878 15.8567407205689328
14 1 1.47193297695595 4.2491048044850182 15.8567407205689328
15 1 0.0 0.0 18.182862029328092
16 1 1.47193297695595 2.54946298466953 18.182862029328092
ITEM: TIMESTEP energy, energy_weight, force_weight, nsims
16 -26064.0497236614501168 1 1 119
ITEM: NUMBER OF ATOMS
16
ITEM: BOX BOUNDS pp pp pp
0.0 2.9438659539118998
0.0 5.0989259693390601
0.0 20.1828770882181772
ITEM: ATOMS id type x y z
1 1 0.0 1.6996418198154878 1.9500150904955024
2 1 1.47193297695595 4.2491048044850182 1.9500150904955024
3 1 0.0 0.0 4.2761360772422412
4 1 1.47193297695595 2.54946298466953 4.2761360772422412
5 1 0.0 1.6996418198154878 6.602257063988981
6 1 1.47193297695595 4.2491048044850182 6.602257063988981
7 1 0.0 0.0 8.9283780507357182
8 1 1.47193297695595 2.54946298466953 8.9283780507357182
9 1 0.0 1.6996418198154878 11.2544990374824607
10 1 1.47193297695595 4.2491048044850182 11.2544990374824607
11 1 0.0 0.0 13.580620024229198
12 1 1.47193297695595 2.54946298466953 13.580620024229198
13 1 0.0 1.6996418198154878 15.9067410109759368
14 1 1.47193297695595 4.2491048044850182 15.9067410109759368
15 1 0.0 0.0 18.2328619977226758
16 1 1.47193297695595 2.54946298466953 18.2328619977226758
ITEM: TIMESTEP energy, energy_weight, force_weight, nsims
17 -26063.9092623570140864 1 1 119
ITEM: NUMBER OF ATOMS
16
ITEM: BOX BOUNDS pp pp pp
0.0 2.9438659539118998
0.0 5.0989259693390601
0.0 20.2828772708066154
ITEM: ATOMS id type x y z
1 1 0.0 1.6996418198154878 2.0000154244528843
2 1 1.47193297695595 4.2491048044850182 2.0000154244528843
3 1 0.0 0.0 4.3261369213780698
4 1 1.47193297695595 2.54946298466953 4.3261369213780698
5 1 0.0 1.6996418198154878 6.6522563900155288
6 1 1.47193297695595 4.2491048044850182 6.6522563900155288
7 1 0.0 0.0 8.9783778869407148
8 1 1.47193297695595 2.54946298466953 8.9783778869407148
9 1 0.0 1.6996418198154878 11.3044993838659007
10 1 1.47193297695595 4.2491048044850182 11.3044993838659007
11 1 0.0 0.0 13.6306208807910886
12 1 1.47193297695595 2.54946298466953 13.6306208807910886
13 1 0.0 1.6996418198154878 15.9567403494285446
14 1 1.47193297695595 4.2491048044850182 15.9567403494285446
15 1 0.0 0.0 18.2828618463537289
16 1 1.47193297695595 2.54946298466953 18.2828618463537289
ITEM: TIMESTEP energy, energy_weight, force_weight, nsims
18 -26063.7805618762431552 1 1 119
ITEM: NUMBER OF ATOMS
16
ITEM: BOX BOUNDS pp pp pp
0.0 2.9438659539118998
0.0 5.0989259693390601
0.0 20.3828803972609976
ITEM: ATOMS id type x y z
1 1 0.0 1.6996418198154878 2.0500163491066838
2 1 1.47193297695595 4.2491048044850182 2.0500163491066838
3 1 0.0 0.0 4.3761371577866255
4 1 1.47193297695595 2.54946298466953 4.3761371577866255
5 1 0.0 1.6996418198154878 6.7022579664665668
6 1 1.47193297695595 4.2491048044850182 6.7022579664665668
7 1 0.0 0.0 9.0283787751465088
8 1 1.47193297695595 2.54946298466953 9.0283787751465088
9 1 0.0 1.6996418198154878 11.3545016221144906
10 1 1.47193297695595 4.2491048044850182 11.3545016221144906
11 1 0.0 0.0 13.680622430794431
12 1 1.47193297695595 2.54946298466953 13.680622430794431
13 1 0.0 1.6996418198154878 16.0067432394743747
14 1 1.47193297695595 4.2491048044850182 16.0067432394743747
15 1 0.0 0.0 18.3328640481543133
16 1 1.47193297695595 2.54946298466953 18.3328640481543133
ITEM: TIMESTEP energy, energy_weight, force_weight, nsims
19 -26063.663148743977216 1 1 119
ITEM: NUMBER OF ATOMS
16
ITEM: BOX BOUNDS pp pp pp
0.0 2.9438659539118998
0.0 5.0989259693390601
0.0 20.4828805798494358
ITEM: ATOMS id type x y z
1 1 0.0 1.6996418198154878 2.1000155246012953
2 1 1.47193297695595 4.2491048044850182 2.1000155246012953
3 1 0.0 0.0 4.426137471347432
4 1 1.47193297695595 2.54946298466953 4.426137471347432
5 1 0.0 1.6996418198154878 6.75225941809357
6 1 1.47193297695595 4.2491048044850182 6.75225941809357
7 1 0.0 0.0 9.0783793165516489
8 1 1.47193297695595 2.54946298466953 9.0783793165516489
9 1 0.0 1.6996418198154878 11.4045012632977834
10 1 1.47193297695595 4.2491048044850182 11.4045012632977834
11 1 0.0 0.0 13.7306211617558632
12 1 1.47193297695595 2.54946298466953 13.7306211617558632
13 1 0.0 1.6996418198154878 16.0567431085020012
14 1 1.47193297695595 4.2491048044850182 16.0567431085020012
15 1 0.0 0.0 18.3828650552481392
16 1 1.47193297695595 2.54946298466953 18.3828650552481392
ITEM: TIMESTEP energy, energy_weight, force_weight, nsims
20 -26063.55641546982224 1 1 119
ITEM: NUMBER OF ATOMS
16
ITEM: BOX BOUNDS pp pp pp
0.0 2.9438659539118998
0.0 5.0989259693390601
0.0 20.582880762437867
ITEM: ATOMS id type x y z
1 1 0.0 1.6996418198154878 2.1500177426496672
2 1 1.47193297695595 4.2491048044850182 2.1500177426496672
3 1 0.0 0.0 4.476138496526601
4 1 1.47193297695595 2.54946298466953 4.476138496526601
5 1 0.0 1.6996418198154878 6.802259250403533
6 1 1.47193297695595 4.2491048044850182 6.802259250403533
7 1 0.0 0.0 9.1283800042804675
8 1 1.47193297695595 2.54946298466953 9.1283800042804675
9 1 0.0 1.6996418198154878 11.4545007581573994
10 1 1.47193297695595 4.2491048044850182 11.4545007581573994
11 1 0.0 0.0 13.7806215120343314
12 1 1.47193297695595 2.54946298466953 13.7806215120343314
13 1 0.0 1.6996418198154878 16.1067422659112651
14 1 1.47193297695595 4.2491048044850182 16.1067422659112651
15 1 0.0 0.0 18.4328630197882007
16 1 1.47193297695595 2.54946298466953 18.4328630197882007
ITEM: TIMESTEP energy, energy_weight, force_weight, nsims
21 -26063.4596540179336448 1 1 119
ITEM: NUMBER OF ATOMS
16
ITEM: BOX BOUNDS pp pp pp
0.0 2.9438659539118998
0.0 5.0989259693390601
0.0 20.6828809450263016
ITEM: ATOMS id type x y z
1 1 0.0 1.6996418198154878 2.2000173632415026
2 1 1.47193297695595 4.2491048044850182 2.2000173632415026
3 1 0.0 0.0 4.5261382516048308
4 1 1.47193297695595 2.54946298466953 4.5261382516048308
5 1 0.0 1.6996418198154878 6.852259139968159
6 1 1.47193297695595 4.2491048044850182 6.852259139968159
7 1 0.0 0.0 9.1783800283314872
8 1 1.47193297695595 2.54946298466953 9.1783800283314872
9 1 0.0 1.6996418198154878 11.5045009166948128
10 1 1.47193297695595 4.2491048044850182 11.5045009166948128
11 1 0.0 0.0 13.8306218050581436
12 1 1.47193297695595 2.54946298466953 13.8306218050581436
13 1 0.0 1.6996418198154878 16.1567426934214709
14 1 1.47193297695595 4.2491048044850182 16.1567426934214709
15 1 0.0 0.0 18.4828635817847946
16 1 1.47193297695595 2.54946298466953 18.4828635817847946
ITEM: TIMESTEP energy, energy_weight, force_weight, nsims
22 -26063.3721869650798912 1 1 119
ITEM: NUMBER OF ATOMS
16
ITEM: BOX BOUNDS pp pp pp
0.0 2.9438659539118998
0.0 5.0989259693390601
0.0 20.7828811276147328
ITEM: ATOMS id type x y z
1 1 0.0 1.6996418198154878 2.2500170595189539
2 1 1.47193297695595 4.2491048044850182 2.2500170595189539
3 1 0.0 0.0 4.5761389514391206
4 1 1.47193297695595 2.54946298466953 4.5761389514391206
5 1 0.0 1.6996418198154878 6.9022587650711742
6 1 1.47193297695595 4.2491048044850182 6.9022587650711742
7 1 0.0 0.0 9.2283806569913392
8 1 1.47193297695595 2.54946298466953 9.2283806569913392
9 1 0.0 1.6996418198154878 11.5545004706233936
10 1 1.47193297695595 4.2491048044850182 11.5545004706233936
11 1 0.0 0.0 13.8806223625435604
12 1 1.47193297695595 2.54946298466953 13.8806223625435604
13 1 0.0 1.6996418198154878 16.206742176175613
14 1 1.47193297695595 4.2491048044850182 16.206742176175613
15 1 0.0 0.0 18.5328640680957798
16 1 1.47193297695595 2.54946298466953 18.5328640680957798
ITEM: TIMESTEP energy, energy_weight, force_weight, nsims
23 -26063.2932462746866816 1 1 119
ITEM: NUMBER OF ATOMS
16
ITEM: BOX BOUNDS pp pp pp
0.0 2.9438659539118998
0.0 5.0989259693390601
0.0 20.882884254069122
ITEM: ATOMS id type x y z
1 1 0.0 1.6996418198154878 2.3000179005704933
2 1 1.47193297695595 4.2491048044850182 2.3000179005704933
3 1 0.0 0.0 4.6261394064585738
4 1 1.47193297695595 2.54946298466953 4.6261394064585738
5 1 0.0 1.6996418198154878 6.9522609123466532
6 1 1.47193297695595 4.2491048044850182 6.9522609123466532
7 1 0.0 0.0 9.2783824182347363
8 1 1.47193297695595 2.54946298466953 9.2783824182347363
9 1 0.0 1.6996418198154878 11.6045018358343874
10 1 1.47193297695595 4.2491048044850182 11.6045018358343874
11 1 0.0 0.0 13.9306233417224678
12 1 1.47193297695595 2.54946298466953 13.9306233417224678
13 1 0.0 1.6996418198154878 16.2567448476105483
14 1 1.47193297695595 4.2491048044850182 16.2567448476105483
15 1 0.0 0.0 18.582866353498627
16 1 1.47193297695595 2.54946298466953 18.582866353498627
ITEM: TIMESTEP energy, energy_weight, force_weight, nsims
24 -26063.2221123461495168 1 1 119
ITEM: NUMBER OF ATOMS
16
ITEM: BOX BOUNDS pp pp pp
0.0 2.9438659539118998
0.0 5.0989259693390601
0.0 20.982884436657553
ITEM: ATOMS id type x y z
1 1 0.0 1.6996418198154878 2.3500180099638923
2 1 1.47193297695595 4.2491048044850182 2.3500180099638923
3 1 0.0 0.0 4.676138612842876
4 1 1.47193297695595 2.54946298466953 4.676138612842876
5 1 0.0 1.6996418198154878 7.0022613140103029
6 1 1.47193297695595 4.2491048044850182 7.0022613140103029
7 1 0.0 0.0 9.3283819168892883
8 1 1.47193297695595 2.54946298466953 9.3283819168892883
9 1 0.0 1.6996418198154878 11.6545025197682684
10 1 1.47193297695595 4.2491048044850182 11.6545025197682684
11 1 0.0 0.0 13.980623122647252
12 1 1.47193297695595 2.54946298466953 13.980623122647252
13 1 0.0 1.6996418198154878 16.3067458238146799
14 1 1.47193297695595 4.2491048044850182 16.3067458238146799
15 1 0.0 0.0 18.6328664266936634
16 1 1.47193297695595 2.54946298466953 18.6328664266936634
ITEM: TIMESTEP energy, energy_weight, force_weight, nsims
25 -26063.1581174162165568 1 1 119
ITEM: NUMBER OF ATOMS
16
ITEM: BOX BOUNDS pp pp pp
0.0 2.9438659539118998
0.0 5.0989259693390601
0.0 21.0828846192459878
ITEM: ATOMS id type x y z
1 1 0.0 1.6996418198154878 2.4000186612664911
2 1 1.47193297695595 4.2491048044850182 2.4000186612664911
3 1 0.0 0.0 4.726139703654063
4 1 1.47193297695595 2.54946298466953 4.726139703654063
5 1 0.0 1.6996418198154878 7.0522607460416351
6 1 1.47193297695595 4.2491048044850182 7.0522607460416351
7 1 0.0 0.0 9.3783817884292074
8 1 1.47193297695595 2.54946298466953 9.3783817884292074
9 1 0.0 1.6996418198154878 11.7045028308167804
10 1 1.47193297695595 4.2491048044850182 11.7045028308167804
11 1 0.0 0.0 14.0306238732043518
12 1 1.47193297695595 2.54946298466953 14.0306238732043518
13 1 0.0 1.6996418198154878 16.3567449155919249
14 1 1.47193297695595 4.2491048044850182 16.3567449155919249
15 1 0.0 0.0 18.6828659579794946
16 1 1.47193297695595 2.54946298466953 18.6828659579794946
ITEM: TIMESTEP energy, energy_weight, force_weight, nsims
26 -26063.1006171232984352 1 1 119
ITEM: NUMBER OF ATOMS
16
ITEM: BOX BOUNDS pp pp pp
0.0 2.9438659539118998
0.0 5.0989259693390601
0.0 21.1828848018344189
ITEM: ATOMS id type x y z
1 1 0.0 1.6996418198154878 2.4500188110456098
2 1 1.47193297695595 4.2491048044850182 2.4500188110456098
3 1 0.0 0.0 4.7761410471737698
4 1 1.47193297695595 2.54946298466953 4.7761410471737698
5 1 0.0 1.6996418198154878 7.1022611650134495
6 1 1.47193297695595 4.2491048044850182 7.1022611650134495
7 1 0.0 0.0 9.4283812828531328
8 1 1.47193297695595 2.54946298466953 9.4283812828531328
9 1 0.0 1.6996418198154878 11.754503518981288
10 1 1.47193297695595 4.2491048044850182 11.754503518981288
11 1 0.0 0.0 14.0806236368209703
12 1 1.47193297695595 2.54946298466953 14.0806236368209703
13 1 0.0 1.6996418198154878 16.4067437546606492
14 1 1.47193297695595 4.2491048044850182 16.4067437546606492
15 1 0.0 0.0 18.7328659907888096
16 1 1.47193297695595 2.54946298466953 18.7328659907888096
ITEM: TIMESTEP energy, energy_weight, force_weight, nsims
27 -26063.0489690105750912 1 1 119
ITEM: NUMBER OF ATOMS
16
ITEM: BOX BOUNDS pp pp pp
0.0 2.9438659539118998
0.0 5.0989259693390601
0.0 21.2828849844228536
ITEM: ATOMS id type x y z
1 1 0.0 1.6996418198154878 2.5000196241572122
2 1 1.47193297695595 4.2491048044850182 2.5000196241572122
3 1 0.0 0.0 4.8261410516837016
4 1 1.47193297695595 2.54946298466953 4.8261410516837016
5 1 0.0 1.6996418198154878 7.1522603509216918
6 1 1.47193297695595 4.2491048044850182 7.1522603509216918
7 1 0.0 0.0 9.4783817784481794
8 1 1.47193297695595 2.54946298466953 9.4783817784481794
9 1 0.0 1.6996418198154878 11.8045032059746724
10 1 1.47193297695595 4.2491048044850182 11.8045032059746724
11 1 0.0 0.0 14.1306246335011618
12 1 1.47193297695595 2.54946298466953 14.1306246335011618
13 1 0.0 1.6996418198154878 16.4567439327391512
14 1 1.47193297695595 4.2491048044850182 16.4567439327391512
15 1 0.0 0.0 18.7828653602656388
16 1 1.47193297695595 2.54946298466953 18.7828653602656388
ITEM: TIMESTEP energy, energy_weight, force_weight, nsims
28 -26063.0026327993546144 1 1 119
ITEM: NUMBER OF ATOMS
16
ITEM: BOX BOUNDS pp pp pp
0.0 2.9438659539118998
0.0 5.0989259693390601
0.0 21.3828881108772393
ITEM: ATOMS id type x y z
1 1 0.0 1.6996418198154878 2.5500205982402876
2 1 1.47193297695595 4.2491048044850182 2.5500205982402876
3 1 0.0 0.0 4.8761409750715794
4 1 1.47193297695595 2.54946298466953 4.8761409750715794
5 1 0.0 1.6996418198154878 7.2022613519028713
6 1 1.47193297695595 4.2491048044850182 7.2022613519028713
7 1 0.0 0.0 9.5283838670229742
8 1 1.47193297695595 2.54946298466953 9.5283838670229742
9 1 0.0 1.6996418198154878 11.8545042438542688
10 1 1.47193297695595 4.2491048044850182 11.8545042438542688
11 1 0.0 0.0 14.1806267589743698
12 1 1.47193297695595 2.54946298466953 14.1806267589743698
13 1 0.0 1.6996418198154878 16.5067471358056608
14 1 1.47193297695595 4.2491048044850182 16.5067471358056608
15 1 0.0 0.0 18.8328675126369518
16 1 1.47193297695595 2.54946298466953 18.8328675126369518
ITEM: TIMESTEP energy, energy_weight, force_weight, nsims
29 -26062.9611354226435648 1 1 119
ITEM: NUMBER OF ATOMS
16
ITEM: BOX BOUNDS pp pp pp
0.0 2.9438659539118998
0.0 5.0989259693390601
0.0 21.482888293465674
ITEM: ATOMS id type x y z
1 1 0.0 1.6996418198154878 2.6000202629374166