ITEM: TIMESTEP energy, energy_weight, force_weight, nsims
0 -117263.0022220872924768 1 1 616
ITEM: NUMBER OF ATOMS
72
ITEM: BOX BOUNDS xy xz yz pp pp pp
-1.1038899319835847 14.0725475838950445 5.4176420056004444
-0.6632859988037632 10.1891001058198345 -1.1038899319835847
0.0 31.6043137940396052 -0.6632859988037632
ITEM: ATOMS id type x y z
1 1 -0.2659737910975452 1.6005648856883846 9.6029233398482444
2 1 2.6127036937270246 1.5155535411798816 9.5981953345046538
3 1 5.3803284043457627 1.505181820631123 10.2367731364387425
4 1 0.8712988655593766 4.1087921526402518 10.2113443055600577
5 1 3.8248313614178914 4.0953059050581402 9.6521533794452204
6 1 6.6987702597843396 4.0596787924131945 10.2700335162755892
7 1 2.2258051020957721 6.5299138239771786 10.3581115783882005
8 1 5.1684051101074067 6.4673425117780434 10.2123208788562945
9 1 8.1305891477329428 6.510065929431951 9.9895041457455562
10 1 3.6351652883411778 9.0775986440040963 10.1302128716193796
11 1 6.5825541783427672 9.1860564479124278 10.0033089100107926
12 1 9.4484671719719096 9.0115672431772111 9.7021514038673882
13 1 -0.3291309782300861 -0.2198386690693487 12.5747401745293762
14 1 2.365683066186286 -0.2771517300084899 12.4711064691673404
15 1 5.3817444489535564 -0.3688100385088684 12.1573925691535632
16 1 0.9065718635890362 2.3139490938984704 12.0483197613875763
17 1 3.7808520605969038 2.3171472480179167 12.4307509208837317
18 1 6.5889230601457118 2.248259519811981 12.2489945122542086
19 1 2.141069892568714 4.7941749798599958 12.6812435515839096
20 1 5.2597945940710975 4.945624852878125 12.2607544774169721
21 1 7.9533317636466236 4.7314959506378074 12.0330043109229834
22 1 3.6809092975499462 7.2667336876658677 12.3399264439024208
23 1 6.5737168130171658 7.3672642850207844 12.6598727145963804
24 1 9.2545470459394821 7.2662213143510464 11.9087551116730968
25 1 -0.662017338753564 1.3032887217960341 15.0437260558845765
26 1 2.3186863887434894 1.525539997068724 14.3130374813977621
27 1 5.1252638297815176 1.3108034723519799 14.633666405269672
28 1 0.8895594366896716 3.927205254717594 14.3503906198709359
29 1 3.7397768099607314 3.9014841040057422 14.8526210912347808
30 1 6.5822913305696994 3.9171739075290138 14.4191932110005592
31 1 2.1955540285032447 6.4994989143713538 15.0468612038129486
32 1 5.1055882779719308 6.440659995766719 14.3261943572302197
33 1 8.0205900290378178 6.468360300749863 14.2584094250047642
34 1 3.3449152760560712 8.937090746981669 14.5194515756493914
35 1 6.4311075904792663 8.9571960180408184 14.9210918370695644
36 1 9.2572458923488181 9.0850949803959118 14.7076078578222092
37 1 -0.452538348564177 -0.3017414544550145 16.9089020409105152
38 1 2.2730874965659078 -0.3527665314575548 16.9487171554282484
39 1 5.1466723477292629 -0.4184635180284064 17.112313725351715
40 1 0.7048256457172054 2.2039481161071253 17.2789759137132038
41 1 3.626633386528492 2.2432495251867804 16.682792138302439
42 1 6.3782769144621874 2.0944807923886 16.7135589377809382
43 1 2.1110241364165407 4.605362050798937 17.010453021993527
44 1 4.995130001442587 4.7427792112297516 16.9410847136469904
45 1 7.8102423751953642 4.7606879332692884 16.5718515155912236
46 1 3.4566311234149422 7.1726963634512746 16.8058182506084962
47 1 6.3361587799537409 7.4111749245907808 16.7775323897628326
48 1 9.2268985551410872 7.1667041726860807 16.594094631639468
49 1 -0.6646112738135712 1.3648913245850891 19.5011510669252318
50 1 2.0774079644368539 1.3081346392623612 19.4515986633275588
51 1 4.9652028965213172 1.24126178730891 19.4041542674599477
52 1 0.5799955147390938 3.763774899629861 19.5673937086375426
53 1 3.4807754223816514 3.721136246150465 19.2188265713717002
54 1 6.5237892333502616 3.9309108436912998 19.1766190102997563
55 1 2.0569346310739629 6.406721131542116 19.603726027775167
56 1 4.9647133677362972 6.3904771522284367 19.4865530343837676
57 1 7.8022794895968738 6.4560750399374136 19.0436659830309907
58 1 3.4114959565344201 9.0473188884880873 19.1502894564779425
59 1 6.2578201286486737 8.8895070044295874 19.5930595718696808
60 1 9.0209189668972591 8.9152143220179702 19.1255211557575535
61 1 -0.7373983295520916 -0.3299912720554509 21.2345086195476114
62 1 2.1841457622288165 -0.3569524310641611 21.8533052814780078
63 1 5.058711736782584 -0.532628121112029 21.3632171874738397
64 1 0.5019445139430394 1.9584337122860396 21.7522378463960494
65 1 3.5145817446180012 2.2136058749481329 21.7842119306614812
66 1 6.4208500402346429 2.0462117530600676 21.8648250538559346
67 1 1.9849787588896104 4.7143270638909264 21.9793717287710564
68 1 4.8581632408604892 4.6731711261725782 21.826447935615832
69 1 7.6848994821223418 4.6466475625185826 21.5085148597105588
70 1 3.2876071053212006 7.2702194440120671 21.3206366954991253
71 1 6.1723226725005507 7.2204193097667719 21.5563859138143848
72 1 8.8974859375688578 7.0537307031463987 21.8901622322246184
ITEM: TIMESTEP energy, energy_weight, force_weight, nsims
1 -117267.1433953004379888 1 1 616
ITEM: NUMBER OF ATOMS
72
ITEM: BOX BOUNDS xy xz yz pp pp pp
-0.8831119455868678 14.1423061228560982 5.4874005445614982
-0.5265125259499738 10.1517109137216028 -0.8831119455868678
0.0 31.613825535270152 -0.5265125259499738
ITEM: ATOMS id type x y z
1 1 -0.4549509416587984 1.4223599406433079 9.8635356966821632
2 1 2.5366616511727966 1.4071647323933103 9.7012208322364248
3 1 5.4965864438036904 1.4705519384752378 9.5879105587529098
4 1 1.002108887888201 4.188915249610722 10.1179068597040516
5 1 3.9333914783101882 4.0964307542140537 10.1651695288792805
6 1 6.9326790499188294 4.0759841924552243 10.0497822270581008
7 1 2.2777334939147647 6.5137019245712812 10.2974670659792782
8 1 5.2117945603294924 6.5931746527549748 10.0665059407662554
9 1 8.3036523388995107 6.628544464698643 9.9520796992413488
10 1 3.696792702091797 9.0901527503872472 10.0659368919066221
11 1 6.7467383101593086 9.1787758250145757 9.6838932944605426
12 1 9.5682129250457156 9.0814501358501794 9.7816780182236888
13 1 -0.2924122188315239 -0.2780489370875022 12.0017273026124975
14 1 2.4612980857621688 -0.2698352363100727 12.53203658043644
15 1 5.563609687035858 -0.1113365631270599 11.9924644517306636
16 1 0.9738459032423668 2.2373040484851181 12.1489560495128046
17 1 3.9380155386878362 2.2802079213608684 12.2147444204516997
18 1 6.7760911470186144 2.3194755932663252 12.5827989000984246
19 1 2.3631470713094514 4.8820152583586324 12.3961477127556368
20 1 5.2858846737638334 4.9925494551380956 12.1799818578931181
21 1 8.3211874678987865 4.9830641981220128 12.2178046387635142
22 1 3.900100125526254 7.5179959842067224 12.4190266382955095
23 1 6.7464879103552518 7.5162676618590156 12.2953185775934433
24 1 9.572477859112306 7.5061183108809946 12.6890055469841646
25 1 -0.586392878869543 1.323904862071182 14.6613288944785954
26 1 2.3933275767442028 1.4713325111015608 14.8834824078974944
27 1 5.211621618040847 1.4401838723774427 14.852099363288632
28 1 0.8814062778093636 3.9681261904333258 14.3076018005644592
29 1 3.850801501129665 3.947611513636327 14.6249382199049496
30 1 6.6577479907749516 4.0289013071892787 14.7651360520062128
31 1 2.2962925447484906 6.5025988692483718 14.9138221962636912
32 1 5.2855342805415733 6.5963446631848096 15.0033146135889357
33 1 8.1303542465694942 6.6054577510155 14.5571929531654156
34 1 3.724585487280395 8.9763744664954164 14.2584012038839205
35 1 6.5206714546126268 9.0276174440415513 14.864706956912098
36 1 9.4261538904673952 9.0120211090767377 14.3105829843124344
37 1 -0.3787796723848216 -0.2776580260243087 16.7737489098325804
38 1 2.4406947242560451 -0.2091772929019079 17.3483491572314357
39 1 5.2766718310752952 -0.2829477284876246 16.9562871384732326
40 1 0.855766432787334 2.2870577366417999 16.8258832695227944
41 1 3.8610563731345274 2.3493254821379912 16.7679035134911096
42 1 6.7964049799289122 2.3322777094411738 16.8119131200187618
43 1 2.2015266680072392 4.7474373921454474 16.9030621018020498
44 1 5.2485293157340643 4.8744029834689284 17.167717242270566
45 1 8.0992365224203198 4.7871243272294146 16.6024430734046114
46 1 3.6262297665906962 7.4648213781791056 16.8385477680322246
47 1 6.453978914488273 7.392045824193005 17.2446874233012864
48 1 9.4054700771756839 7.220222808315369 16.8064976717045696
49 1 -0.4867097918367342 1.450505345425632 19.2343667610145843
50 1 2.2790580413533976 1.2399958461548895 19.3287593212977918
51 1 5.195049826412343 1.2886671115841588 19.1459618592877554
52 1 0.792428638877765 3.785871345250619 19.3408895461556796
53 1 3.6807668240056112 3.996468668973551 19.3674609665180704
54 1 6.4960833858902172 3.877518586127776 19.59789730222721
55 1 2.2098784124540618 6.5177409265911522 19.485503829684216
56 1 5.0772446524732313 6.4270477297267084 19.2356407981836562
57 1 8.0355803775214643 6.5285756742414094 19.64594715565827
58 1 3.588322842044529 8.8808064923845898 18.9510499793325984
59 1 6.4178218551096969 8.9249407213330034 19.5335536831152758
60 1 9.3645197133996643 8.925363641447131 19.4403782551151707
61 1 -0.5398811836496568 -0.4044278685901558 21.9693704881648592
62 1 2.283620324354807 -0.338750124682056 21.998736570704569
63 1 5.200302591467902 -0.2774772073423033 21.4425102787068163
64 1 0.9078520732628022 2.263969937833426 21.6571428630308668
65 1 3.6338008311440264 2.1091568498316611 21.3160707834784944
66 1 6.4415242821909038 2.1770973906444704 21.9710776347437608
67 1 2.1341606687366981 4.774644326632644 21.8724994039596794
68 1 4.905567661920177 4.6812503454528054 21.6675248433366506
69 1 7.773275563687812 4.622480218769196 21.7494994929496066
70 1 3.6089994434042146 7.2766053578036996 21.7153091406332096
71 1 6.3595363950158426 7.378952544685494 21.6037818869098892
72 1 9.4124168692334447 7.3363848982610591 21.6811029814040524
ITEM: TIMESTEP energy, energy_weight, force_weight, nsims
2 -117264.5891744977725552 1 1 616
ITEM: NUMBER OF ATOMS
72
ITEM: BOX BOUNDS xy xz yz pp pp pp
0.0 15.2929325449624738 5.975693007477724
0.0 10.2454781607568446 0.6623339591901508
0.0 31.62139857765116 0.3733033874030026
ITEM: ATOMS id type x y z
1 1 0.1920825530556761 1.7353730310901172 9.8984875045802952
2 1 3.1100345772559477 1.6912399590368744 10.17674632564405
3 1 6.0424632182618483 1.7983051146399498 9.9692277353383556
4 1 1.7379925490453144 4.1678362828738269 9.7955345550911766
5 1 4.7023432225763768 4.3146710105898088 10.1505985911601915
6 1 7.4438846756278414 4.2718113788122851 9.853433335886857
7 1 3.1048412742266733 6.5920184890238086 9.8686716878614256
8 1 6.1705925001209057 6.7198174249725274 9.7483933740916164
9 1 8.8837823146193546 6.5840338236895112 10.1110939779171325
10 1 4.6328296212825046 9.196031452312214 10.1243781274596021
11 1 7.6560195550584806 9.1012312137220306 9.931313678443754
12 1 10.4236387793758478 9.2139087389990238 9.6196025798247008
13 1 0.3528424644078864 0.2640142966779564 12.2173921750346164
14 1 3.0972525058199145 0.1469513739367469 12.5455622116133406
15 1 5.9800055087980458 0.1480290424050872 12.3409021957390657
16 1 1.723138497986153 2.4841845217841714 12.1998359745443033
17 1 4.6119998631715484 2.5403733835932174 11.9821953745539034
18 1 7.593089215852074 2.5587683851083046 12.1029638200016727
19 1 3.2288496174481365 5.0698732136675888 12.0498367082513607
20 1 6.0962114486488845 5.1569848329176571 12.733342724926862
21 1 8.9913350435613584 5.1760122512697606 12.1022966084916792
22 1 4.7786846387862508 7.6170445507333726 12.2775613722481705
23 1 7.6308744149189112 7.6132451246571584 12.4707649554177618
24 1 10.5446185161030944 7.5567378424075376 12.5337389706851568
25 1 0.3149404540868148 1.8746943186504612 14.4947431656180506
26 1 3.3729850602548575 1.920524474605574 14.9883405488557528
27 1 6.2812167439236584 1.9256228581446544 15.0382138186924248
28 1 1.759388526368957 4.3541295476670357 14.2907029291558967
29 1 4.7125657515245188 4.2400141995766276 15.044414774953502
30 1 7.6774938031081366 4.3812389243216625 14.5433642280710434
31 1 3.2811398366097797 6.6386867450333744 14.613301275305238
32 1 6.1341007358199535 6.77400271349131 14.3774846954124041
33 1 8.949396963267013 6.6838097864673448 14.8039055795117438
34 1 4.8319889105095602 9.2140548302021514 14.6460009635743856
35 1 7.5969142764447968 9.1798985471478165 14.8448141828516516
36 1 10.4965592724084634 9.0963316582400164 14.6121787156557286
37 1 0.410325556005999 0.1749666628826032 17.3340538410242111
38 1 3.1312557079763033 0.1231087782666175 16.8372974800685996
39 1 6.1289665397615787 0.1384575572830819 17.1740116185429983
40 1 1.9482477840776184 2.7581546197460228 16.954831056441872
41 1 4.7129072499505852 2.7080462029145624 16.9258785039041726
42 1 7.6265546841196078 2.7949727011351202 16.9629261344777476
43 1 3.4119936229368917 5.2403131889381341 17.3600434685151797
44 1 6.2168262900711131 5.2113560977419864 17.0799000120961964
45 1 9.0226541568052205 5.0239093610914436 16.9415184476406786
46 1 4.8984904502785778 7.6439095849766634 16.855391244334733
47 1 7.7644877476602946 7.5140284477916914 17.2396576419902061
48 1 10.6290036678192354 7.6720830955132806 17.2922693249437032
49 1 0.4846195112660302 1.9621586506772952 19.4196084006747612
50 1 3.3376673175897582 1.8326690886169962 19.4277034787106367
51 1 6.1716050072885986 1.9845040770991834 19.3560335788343849
52 1 1.8554219880004344 4.2814183530474592 19.3108592488263611
53 1 4.8361734264607392 4.4075185544843754 19.5771145869900352
54 1 7.5395740577794258 4.2184263415024779 19.3563814142187454
55 1 3.368943672976763 6.8942192885878892 18.9482282120777086
56 1 6.2229485117586316 6.7708325571233212 19.4629897973834326
57 1 9.1896074407435755 6.6811219664267548 19.0323948886718384
58 1 4.835825754831526 9.2744388787330738 18.9211128627973756
59 1 7.7576788216905754 9.3272603314172056 19.6166476594918144
60 1 10.6529597806735552 9.2545906699862144 19.3619625910676945
61 1 0.4750308445829902 0.375330476441288 21.2742698321910098
62 1 3.4304861815731145 0.3749221823923078 21.8324128142054158
63 1 6.2079037100260424 0.3371764657748565 21.4424355919668166
64 1 2.0240522640105016 2.6986488744648538 21.7128617926028866
65 1 4.6806747011812276 2.6433902146591226 21.8784251112757532
66 1 7.9115596809602656 2.852047688516624 21.9599735360676612
67 1 3.29537700394935 5.1160457878531869 21.4749044440263504
68 1 6.3741174214545797 5.2390800192551979 21.8251462168122714
69 1 9.2186924837494715 5.0655276537358409 21.2633983953600172
70 1 4.8127856549534896 7.5986049307280946 21.5745339845249512
71 1 7.959370530305839 7.7877568903415942 21.6393515273294206
72 1 10.8513673849040978 7.7513565975904176 21.9635119705684972
ITEM: TIMESTEP energy, energy_weight, force_weight, nsims
3 -117258.003300320655408 1 1 616
ITEM: NUMBER OF ATOMS
72
ITEM: BOX BOUNDS xy xz yz pp pp pp
-0.662332412828394 14.2700150990561277 5.5798133982532274
-0.3917977436806988 10.1549351974732289 -0.662332412828394
0.0 31.6210716895183168 -0.3917977436806988
ITEM: ATOMS id type x y z
1 1 -0.1433110443814698 1.5628624950519786 9.5274067653016862
2 1 2.5973459538328174 1.5144950504072152 9.6565314115458368
3 1 5.5437662272014618 1.715327554172725 9.5638879957098838
4 1 1.1943775556960676 4.0864293081297873 10.3049088381107321
5 1 3.992488995379171 3.9996864999446378 10.3002668647867104
6 1 6.966150059539598 4.0190138514990688 10.0708275307147357
7 1 2.5975991190377896 6.7889148921775774 9.5785633350809896
8 1 5.4862856294143452 6.7851448159644434 10.3372129249487444
9 1 8.4294213819637527 6.6937203171980126 9.9224741107761894
10 1 4.0077283620268007 9.2207335686303456 10.1959457871758197
11 1 6.6997296348209688 9.1456486206422447 10.0369771734711044
12 1 9.6731183654596152 9.282095617947574 9.7276503638827308
13 1 -0.4504228231352088 -0.2749226785642105 12.4661648185889434
14 1 2.6446714428408948 -0.2619993070275407 12.5821192884744076
15 1 5.4544322980418762 -0.1304285750015028 12.6509362267923074
16 1 1.0747177804333614 2.3178015372478354 12.3161259955293474
17 1 4.0548046329229948 2.3440951799789844 12.4378766078555003
18 1 6.8555686696411602 2.4056232538442868 12.0515809476676683
19 1 2.468529926771304 4.927414278344493 11.8579366667482288
20 1 5.4875839750143118 4.8558306295675386 12.0938519963022184
21 1 8.2840485859165458 4.8953619959310172 12.4169118373253493
22 1 3.952017580638675 7.3979620763441041 12.7460081409340128
23 1 6.7674346781427586 7.4606952444598686 12.2714675559822393
24 1 9.5354115919263106 7.3306301891032178 12.7293375119392956
25 1 -0.3516938833527199 1.6176931453161774 14.8354147223192978
26 1 2.5981331601076758 1.4227404596736528 14.6707827746749918
27 1 5.3859319474505014 1.4882328318017152 14.5074283183269408
28 1 1.0903714093271653 4.0870325130967693 14.9469327558467242
29 1 3.9523593152644292 4.0711371120748927 15.0942837878127119
30 1 6.9166295602070252 4.0028364671712096 14.767072100076744
31 1 2.3346975208407011 6.4507883384282652 14.9026189859810322
32 1 5.4427536414952043 6.5719728754372024 14.69078942673295
33 1 8.0496075472874402 6.4640462007296736 14.6712033349284622
34 1 3.9223346488838664 9.0927674748362577 14.5282254971771358
35 1 6.8471338412777848 9.2134441258639424 14.3270617254099282
36 1 9.7179699436897434 9.0579461191309072 14.7141131292111408
37 1 -0.3021232025877321 -0.2549078489942979 17.1294602312504729
38 1 2.5849484099557252 -0.0808990291498421 16.9633357690224216
39 1 5.3616753030051294 -0.2229013764576768 16.8257935934945238
40 1 0.8625949296804664 2.2304935542519795 17.3779322883723708
41 1 3.774007298987299 2.1945864230597327 16.9383329876375192
42 1 6.7564883143534368 2.315710559425717 17.3862233333693617
43 1 2.4738049426030578 4.9514288368160236 16.6864838000591824
44 1 5.2351934263841198 4.8062008093294654 16.9175452951088268
45 1 8.3252298375403999 4.8355944566757866 17.4104261016405211
46 1 3.8629312181311138 7.3752265298620099 16.5948965280176602
47 1 6.895125840958965 7.4711263600724482 16.7266299126761916
48 1 9.5528446321516222 7.426826659140148 16.706616936403897
49 1 -0.5396355585645942 1.3984869744346615 19.5365890167577058
50 1 2.4438609700072038 1.4309483197587991 19.4234804433242943
51 1 5.4261192810016708 1.437519109249722 18.86317086352188
52 1 1.0759917631684397 3.9850271099866208 19.0291087614269614
53 1 3.8792148677009784 3.9013600566434334 19.5236876195083832
54 1 6.6807078835096006 3.8653385413925864 19.256334620480672
55 1 2.3647439695316264 6.3772607476956145 19.7153429350185512
56 1 5.3602374015950929 6.6744570608041238 19.2340891965470995
57 1 8.0908050244242578 6.3944049444584872 19.0921643404830306
58 1 3.7168579923847336 9.2125802703806716 19.541126640545155
59 1 6.5405259736704764 8.9149477530887892 19.6965600184349762
60 1 9.6401120692951282 9.0542399473110073 19.5644440188089988
61 1 -0.6233361782211596 -0.3854495460893804 21.3809544272994075
62 1 2.5798774813922436 -0.1379569339724226 22.0652565534107694
63 1 5.2412568812853522 -0.2175621978643012 21.806409622667541
64 1 1.0867025169848004 2.407018789963121 21.8553052858210428
65 1 3.7097381838111412 2.2475799610736034 21.7709908602681104
66 1 6.6149456010564558 2.2490517205462077 21.7003999798284292
67 1 2.4016922862018615 4.9058340553289738 21.4401459113950175
68 1 5.3405885410763796 4.9003625456420298 21.1915695047365489
69 1 8.3157042750827639 4.910606159281472 21.2112947292564655
70 1 3.800964369302649 7.3344425786471011 21.6815190379226196
71 1 6.5755172029020042 7.4780301259822508 21.5541714959074184
72 1 9.6118151567081648 7.3744152849728071 21.3435372131692027
ITEM: TIMESTEP energy, energy_weight, force_weight, nsims
4 -117255.4466053381365888 1 1 616
ITEM: NUMBER OF ATOMS
72
ITEM: BOX BOUNDS xy xz yz pp pp pp
0.0 14.7709530858972098 5.8599768108854118
0.0 10.1223730117003186 0.2207745742088977
0.0 31.6294055929493858 0.1264858857551862
ITEM: ATOMS id type x y z
1 1 0.0561575300310851 1.6024881664423598 10.3534684126981542
2 1 2.840129829420342 1.6512814201615896 9.8833763720729434
3 1 5.8739705991723748 1.7045063413933452 9.7041103899937848
4 1 1.6904322155634568 4.2671624084942313 10.4026205089895978
5 1 4.4467409994762912 4.0798095112283654 10.0216854368497916
6 1 7.2889465913139908 4.3289124919487083 9.528883483008844
7 1 3.1486953696949556 6.7291076346335582 9.5488100085324046
8 1 5.8523417117182018 6.6122600408705826 9.6756217843762152
9 1 8.8901641576292736 6.6634373236257138 10.0831413719168968
10 1 4.5151059588942434 9.265860568920786 9.9446709971715208
11 1 7.4501091239485886 9.2611149429509237 10.4024528731399553
12 1 10.3261513880261618 9.3004183806359287 9.751209737862249
13 1 -0.0383496666704435 0.0536290952904334 12.6952526698700598
14 1 3.020822323094071 0.0436055732222733 12.7138381085964768
15 1 5.940572333315659 -0.0355304935958112 12.4574722874439434
16 1 1.544706069604272 2.6147515589271144 12.0714164145386391
17 1 4.3634115642711429 2.422571537087983 12.0763917200384139
18 1 7.3285006632496339 2.5420193559266276 11.883664262938897
19 1 2.8774475798930404 4.9975899888655508 12.7547728853148712
20 1 5.7455895434804978 4.95922122368495 11.9660114204001378
21 1 8.7782443042640016 5.013584922958791 11.9087874998013738
22 1 4.5039991191593876 7.4949691641687704 11.9120927726858366
23 1 7.5001032934676912 7.6007015602998136 12.7414347649763258
24 1 10.3137419340703485 7.6112572499494284 12.5464742718419444
25 1 -0.0361915791524039 1.6172780701476924 14.2250942707681585
26 1 2.9402244859808042 1.599621344431284 14.9587288446749422
27 1 5.9141507968035248 1.8464951800833176 14.6096382580861182
28 1 1.7533266930672392 4.3549466701849147 14.8342544819044484
29 1 4.5686020092553452 4.240493171109037 15.0305750394793236
30 1 7.2871749417664846 4.099770483351449 15.0444255561884805
31 1 3.1713032061938287 6.8258297777470204 14.466505708956344
32 1 6.0358577305751933 6.7678617439490054 15.0706874516523044
33 1 8.8546092634843846 6.7117376156588664 14.2532634193892385
34 1 4.558749042833365 9.0978747338194754 14.2722378998044484
35 1 7.4652724595418398 9.3210749365974977 14.2527510230186341
36 1 10.3119672471887185 9.2497940560146432 14.853602189305656
37 1 0.0520256355103725 -0.0067013064492686 17.234217867724027
38 1 3.0658073711522542 0.1507176616649979 17.3118901990386292
39 1 5.898558625514097 0.190891297840172 16.6880318031232982
40 1 1.6759219332333294 2.5970909085513726 17.2753519096976547
41 1 4.457354454569475 2.4673060163788016 16.5273987038789444
42 1 7.343076974566543 2.4496154879903021 16.7059182319861108
43 1 2.8552751403099462 4.9496849147639904 16.7631832708121458
44 1 5.8921499023842482 4.921228581880694 16.9281464356821694
45 1 8.882617374287987 4.994825194398702 16.5701774749434102
46 1 4.5656909010952162 7.5828534931392434 16.6184597625810468
47 1 7.49010419046743 7.4945084978427738 16.7925954550730268
48 1 10.2256444733981624 7.5531681318543172 17.2094710207881008
49 1 0.1661998946526746 1.840217693822896 19.0374102805780687
50 1 3.1848448462192423 1.8192402947602864 18.9326695039570154
51 1 5.877677706679326 1.7733281363616868 19.0761341618455163
52 1 1.66791171766429 4.3864590712854028 19.4293587117453406
53 1 4.6286788397716868 4.2646998584352165 19.0285951652393131
54 1 7.2895845404025881 4.210420685545766 19.4349033465457844
55 1 3.1799345902197152 6.8784924099172652 19.1180842424834481
56 1 5.99174981806671 6.831252853819235 18.8513787686425758
57 1 8.9367135292084648 6.7825011723503392 19.6865595492055264
58 1 4.4971561171951092 9.366152691010484 19.5984684916886032
59 1 7.4789703756425868 9.2557947952805329 19.6251384064845774
60 1 10.4694561064682876 9.2755659530903394 19.235774097754252
61 1 0.2251589418008607 0.1752620728429131 21.7508052611209806
62 1 2.9506338162310222 0.0824656073341229 22.0318483445171296
63 1 5.8138860864612446 0.0259034419840962 21.5860603391495404
64 1 1.520351582656782 2.5430081029564904 21.4606655606762936
65 1 4.4739408090574742 2.5978996856344644 21.5754391847514278
66 1 7.2872739964526732 2.5656253948736434 21.2418501698437084
67 1 2.9456015303292192 5.0783351597644737 21.1945167643738657
68 1 6.136525664481864 5.2127030905326084 21.6082546930541214
69 1 8.845921580660269 5.0532062014930563 22.038806813747577
70 1 4.5495086980331338 7.6951728958125214 21.7302935915939486
71 1 7.4410202951396407 7.5501268065590974 21.7283515460905434
72 1 10.341189864356922 7.6174939599463602 21.494607075818088
ITEM: TIMESTEP energy, energy_weight, force_weight, nsims
5 -117250.5512026567703376 1 1 616
ITEM: NUMBER OF ATOMS
72
ITEM: BOX BOUNDS xy xz yz pp pp pp
-1.1038868753499593 14.18741393399654 5.4618631929604398
-0.6632814651306002 10.2722680420443826 -1.1038868753499593
0.0 31.6042850805116552 -0.6632814651306002
ITEM: ATOMS id type x y z
1 1 -0.5277067363977286 1.3211404723691365 10.4807678793961704
2 1 2.523241762604394 1.3548350034827179 10.4693903367671838
3 1 5.551607262368778 1.623602417979295 10.2361791567295821
4 1 1.0154319357007668 4.0622503287884682 10.5036588630799842
5 1 3.9549184915495786 4.0708465058706871 10.0119341123693193
6 1 6.8713917989827032 4.080022614070125 10.3958692883843913
7 1 2.2845604924158929 6.4844625189506662 10.0303499292857357
8 1 5.3259001287404315 6.7673346382906302 10.0264562813638136
9 1 7.982462237916434 6.5523142252900578 10.4781889697335996
10 1 3.9000201228120314 9.3560771614108518 10.062993995345396
11 1 6.5739949832104516 9.1546816820597901 10.2146503177327368
12 1 9.5596459778256336 9.1242944976573579 10.3747892302356899
13 1 -0.441777090777744 -0.40365334272457 12.0041481475614695
14 1 2.2939962456568903 -0.3574433560938288 12.2049143685354178
15 1 5.2782416661378617 -0.2572680830237681 12.0340394803906161
16 1 0.9384911991410362 2.2840738712563291 12.6513280557261538
17 1 3.7387514840711602 2.2006998760895527 12.0881175725918801
18 1 6.66522751113469 2.417191451792295 12.3196094795211035
19 1 2.3312986153487523 4.9930970808070718 11.9333861532662038
20 1 5.2043556751806506 4.7353902299470222 12.700232526459736
21 1 8.1567655739878386 4.8534351498594308 12.0585486034705518
22 1 3.537168825380935 7.3645903316802244 12.1558708389474806
23 1 6.6662210852365416 7.3674462600797295 12.4312768999960763
24 1 9.3977150448860272 7.4615486516481174 12.571056332050162
25 1 -0.5298348641309954 1.3137663203796337 14.2121277974267777
26 1 2.3396380983872511 1.4086249752298952 14.1332561435798514
27 1 5.2845840141418093 1.479262688809761 14.9662408041613766
28 1 0.8239293371828924 3.916635087261413 14.4534138723024538
29 1 3.7362152300329812 3.8923879177158184 15.0451914687210024
30 1 6.5247453925588906 3.9497304272737126 14.4960385715905408
31 1 2.2529953688374089 6.6822401714415394 14.8081087637610356
32 1 5.1728840822063162 6.568743778533662 14.2391715841701707
33 1 8.0900816920430447 6.6146094940313552 14.8356708607797484
34 1 3.5580375534095694 9.2094546154882693 15.1719594166074394
35 1 6.3230178424338792 9.1394004078296636 14.1912057607034807
36 1 9.4986722795188482 9.2029118832709873 14.5313247558829328
37 1 -0.8124846021799864 -0.5074813011672028 17.4745622960038034
38 1 2.3907850049002244 -0.4596630710762508 16.9668584187564306
39 1 5.3680293305808347 -0.2472547176638969 16.7183886898819552
40 1 0.8654903973929492 2.1573870885859807 17.338657549300585
41 1 3.6323475420977212 2.1767309549387304 16.5420589021322614
42 1 6.4231941612027361 2.1728342322522702 17.2590368738972551
43 1 2.2211732761666494 4.8321157119666892 16.7957749423300982
44 1 5.1133335046276507 4.73625615680833 17.2061249798154634
45 1 7.9569414708319384 4.879311268033474 17.3178966944311981
46 1 3.4692621549153234 7.3717837111028404 17.2793236644904305
47 1 6.3264049229388819 7.3658738956016414 16.9288321429475594
48 1 9.2463914244920655 7.4362134739311854 17.293858475198963
49 1 -0.86150244029646 1.2497963854248295 19.7411015256947914
50 1 2.3066447920762876 1.3886386808142721 19.727824565532469
51 1 5.1882833784957878 1.3075705015047263 18.8290081791282412
52 1 0.8451944161361632 3.9945225996994184 18.7541692320575956
53 1 3.4709763990193766 3.7353322342955592 19.7589990323358898
54 1 6.3735415006104264 3.7617125421338056 18.9489432805802772
55 1 2.0965969003698328 6.565410089154475 19.4862635333765972
56 1 4.8020457505990236 6.4230552851172576 19.2534126421889127
57 1 7.6387808405262422 6.379824820007082 19.5965530070220524
58 1 3.3835515721049232 8.9062840829793136 19.2070396746902752
59 1 6.3609826021484706 9.0130287998282963 19.6388174174602278
60 1 9.1249447152985912 8.9273482050962602 19.2632384144204387
61 1 -0.868210287236009 -0.5917357198610632 21.5097057626568002
62 1 2.0385009102198843 -0.4218627692122523 21.2722975335605043
63 1 5.1505791227057634 -0.4887667785963814 22.0295709688031494
64 1 0.714598390462165 2.2408287282053161 21.6104412609224212
65 1 3.5122220869284768 2.2272543861837711 22.0072709852503436
66 1 6.2770608657997951 2.0600324856462948 22.0590388042122214
67 1 1.8671579730111912 4.5936530304902076 21.9667985377762384
68 1 4.8652177656952018 4.5403745033588888 21.8336844494456308
69 1 7.8936548158726492 4.6185079522103214 21.1031450789525827
70 1 3.1739624316315389 7.1471265657032426 21.3130639008858509
71 1 6.3076354542566122 7.2681759914611277 21.9141173549755344
72 1 9.2202982879198121 7.1917270944481304 21.7475848956007952
ITEM: TIMESTEP energy, energy_weight, force_weight, nsims
6 -117250.256637840757320 1 1 616
ITEM: NUMBER OF ATOMS
72
ITEM: BOX BOUNDS xy xz yz pp pp pp
-0.2207738848496954 14.468716964336803 5.7431662233007028
-0.1285448135169438 10.1176861851161881 -0.2207738848496954
0.0 31.629484471051768 -0.1285448135169438
ITEM: ATOMS id type x y z
1 1 -0.1426067038846716 1.6695401922458726 10.0717862289623561
2 1 2.8625996288731122 1.496629114816345 10.2559678799857395
3 1 5.697363647505017 1.7188906417103422 10.4324161220559475
4 1 1.3420841436522395 4.2655982091662557 9.8700407252121956
5 1 4.059872514957628 4.0510245502018902 9.5401262244884446
6 1 7.0027772451683816 4.0313412755082751 10.4342000249801164
7 1 2.6537839576919606 6.5775657307202878 9.7663909046005646
8 1 5.7838634420543338 6.7234288431642328 10.3555469859459493
9 1 8.5039934230027986 6.6624100249001926 9.8758289208704024
10 1 4.3486920810364165 9.3441436322642755 10.0066769351786942
11 1 7.2278556569982344 9.2149747640696713 10.3231995121774034