ITEM: TIMESTEP energy, energy_weight, force_weight, nsims
0 -89583.9478268944060390 1 1 510
ITEM: NUMBER OF ATOMS
55
ITEM: BOX BOUNDS xy xz yz pp pp pp
-4.6987482384561386 8.6549055782945992 -4.4576052592336942
-0.4262194801086958 7.4186994498300472 -0.2411429792224442
0.0 13.808382555834335 -0.4262194801086958
ITEM: ATOMS id type x y z
1 1 -0.0132401863567252 1.6531473880989086 1.1707740934380369
2 1 1.324791593250751 0.6769454883670712 3.5369495306024414
3 1 -0.1500940648221794 1.47869470769185 5.6498336640304104
4 1 1.242558210419821 0.5971663299045264 8.0971568229606863
5 1 -0.174084765260947 1.2974831391903661 10.3105135095414156
6 1 1.1304786677239711 0.4494652946318612 12.7664323866126992
7 1 -1.4747644331933394 4.0451682754528395 1.1663043200047132
8 1 -0.0998274638263653 3.179230316846581 3.4918913974844982
9 1 -1.6149034167159086 3.9415052255797808 5.8171263612091098
10 1 -0.1110557713632831 3.0077003031202501 8.0458766326630844
11 1 -1.744978135586133 3.8266343134550542 10.4070106293563516
12 1 -0.3419031710529611 2.9653376757574338 12.6172977124949206
13 1 -2.9948090388621508 6.5671791769201412 1.0773189603001501
14 1 -1.6138655232829616 5.7133752510532636 3.5077448014968514
15 1 -3.0305833665869266 6.4031100175478466 5.751529639877619
16 1 -1.7755845939956786 5.5642802960195112 8.1186385237027974
17 1 -3.2095494676285106 6.281748694074925 10.4186303832770886
18 1 -1.807562308551733 5.3626874173772477 12.7353082923318492
19 1 2.7662315639190096 1.6201765143300336 1.2245618860077785
20 1 4.1884674734291254 0.7126567269331132 3.4310820423851154
21 1 2.722427079273257 1.4352413512264943 5.7964386424639578
22 1 4.1349381478766958 0.6326895141793134 8.0876318006736714
23 1 2.6148871582629814 1.3178035617190132 10.3104458484668929
24 1 4.0965645649309748 0.4717192949707894 12.7597946971181102
25 1 1.3499992756040278 4.0854554909166216 1.1103527538884723
26 1 2.6809791409700506 3.2244927988196812 3.4215818751867007
27 1 1.261717685629354 3.9044556352716068 5.819621535936948
28 1 2.6992127392861734 3.0171432550253772 8.1248163940582767
29 1 1.1971203133875048 3.7925378240198052 10.4440046670616873
30 1 2.5394685892777784 2.9328482329626358 12.594272234583066
31 1 -0.1153039088701921 6.5777770415746498 1.1042535913135605
32 1 1.2247059932771891 5.7124261518624656 3.5581053535162348
33 1 -0.1337338778023767 6.3750311196936736 5.7962536101377102
34 1 1.2224304033791189 5.484436320197939 8.1647681873070717
35 1 -0.2692248766037809 6.2339264795643255 10.3617577980443727
36 1 1.0827741345963264 5.3773278756712664 12.7563978350093716
37 1 5.7170299501973902 1.6347000788132708 1.1487814825413596
38 1 7.1449825067156434 0.6984899907978238 3.507439636242368
39 1 5.722949474380541 1.4122368475054987 5.7490137525759454
40 1 7.071629549979348 0.5260716552717386 8.103062668179815
41 1 5.5413152447110514 1.2926549388307243 10.3980752250044741
42 1 6.9930734845138742 0.4651066063921696 12.6614099714077906
43 1 4.1552652318109402 4.114240556885802 1.09553083605304
44 1 5.631789326976266 3.175641367536683 3.4931341519145232
45 1 4.0809394055387971 3.9903426785299008 5.7874866680530116
46 1 5.6085892755891732 3.0351846485383458 7.996283826713805
47 1 4.0260842571452704 3.8131111913162426 10.3019895949896992
48 1 5.488567229433893 2.8938521408977716 12.6441343039921836
49 1 2.7379012833093062 6.6037330867588402 1.2399692792635784
50 1 4.1125995891699869 5.7161985239025476 3.384408328508139
51 1 2.6419844848544178 6.4065977229156026 5.70403156556206
52 1 4.1218255894060292 5.495167661925354 8.1248163940582767
53 1 2.625166533979396 6.2398965792533901 10.3575669539386777
54 1 3.9727725002485088 5.3264727332720945 12.7183736919653736
55 1 1.5097770636022692 0.738891022373251 1.0515249016858517
ITEM: TIMESTEP energy, energy_weight, force_weight, nsims
1 -89586.4921275761378260 1 1 510
ITEM: NUMBER OF ATOMS
55
ITEM: BOX BOUNDS xy xz yz pp pp pp
-4.624740140856141 8.6549055782945992 -4.4314414796705091
-0.3402589579050739 7.4343561740211817 -0.1932986611856316
0.0 13.839445011954835 -0.3402589579050739
ITEM: ATOMS id type x y z
1 1 -0.0420203764273282 1.587336826480631 1.2204369941572415
2 1 1.4191189672682374 0.6839730730163648 3.48112832813858
3 1 -0.1751438149164568 1.5428394298034752 5.694800147691801
4 1 1.2907363931728937 0.6757567840612578 8.1392793114318991
5 1 -0.1778494599592461 1.3408682879572671 10.2751153243488833
6 1 1.1779047400148921 0.5285561050283966 12.6199574037254116
7 1 -1.5281158259978878 4.1229588640960779 1.1627306602908938
8 1 -0.0270438634126292 3.2061347034153478 3.4729118496349828
9 1 -1.59350484906471 4.0076322363601218 5.7308269909469214
10 1 -0.1929527633775857 3.0938762540099942 7.9941990254270748
11 1 -1.6280483127777238 3.8859456182610416 10.4716686581866726
12 1 -0.1781335926844812 3.0093904217462493 12.7155367628114782
13 1 -2.999037264459675 6.5621480200009614 1.1648799261012504
14 1 -1.5821605091207212 5.6725799249359596 3.5336227270134254
15 1 -3.0675764696749734 6.481561642556632 5.827701722086105
16 1 -1.6603849092380966 5.6442133267084032 8.0101738968043747
17 1 -3.1932484480453738 6.3857206898729429 10.3383366770524976
18 1 -1.727060901752477 5.5076661255405952 12.6939887469278646
19 1 2.787933179691117 1.655118401047585 1.199106257560316
20 1 4.2309392918544653 0.7005742418229668 3.4780338282339072
21 1 2.8017162100309602 1.509076128175666 5.7811970350124318
22 1 4.2554648819317178 0.5896849110880552 8.0781933850936305
23 1 2.7838667155900688 1.3493108306861634 10.4272993974783432
24 1 4.1245957931066606 0.5027017088714134 12.7241850319994488
25 1 1.3654380371439614 4.0857737184159815 1.0554154518346923
26 1 2.7671857284807122 3.203501043327992 3.4791575911688772
27 1 1.3283490180364306 4.0401177041350786 5.660481091951156
28 1 2.7070699628997006 3.0693849750803706 8.1768174220823244
29 1 1.3002714989675701 3.854385283317261 10.3125870056632536
30 1 2.749721672742099 2.9488918951245702 12.7602270986440818
31 1 -0.1023560196733776 6.5813002451847682 1.2141441985103061
32 1 1.2666323176591594 5.6729736740335684 3.386737777379043
33 1 -0.2350067569641338 6.522148743019998 5.6861587982263364
34 1 1.2527107561857352 5.6130959183698082 8.170683780053027
35 1 -0.2187770346228256 6.4101957220942341 10.4384387667684688
36 1 1.1949074763670042 5.5161526280304916 12.7558178514632736
37 1 5.721441576634243 1.6768645522409644 1.158923428968105
38 1 7.1954774615028807 0.689646676184466 3.4161590535299578
39 1 5.6598992480131924 1.5215428073088098 5.6819557587762058
40 1 7.0361030076141793 0.6281566292524068 8.0729454675450985
41 1 5.5354949882885256 1.4100156005244986 10.4879756762442576
42 1 7.108385178314113 0.4792817811019416 12.7032390319738564
43 1 4.3151482669143207 4.0467007110274604 1.1010551735951171
44 1 5.7215975745010744 3.1800320455968017 3.3967077135656552
45 1 4.1707070743103136 4.0055843056782612 5.8043864090744642
46 1 5.6630312820450124 3.114337426488822 8.1332799120192174
47 1 4.2043064920908933 3.8558036099743944 10.4016438343151823
48 1 5.545189649825062 2.9437381852106328 12.7123993606272664
49 1 2.740662829886107 6.5377516825017176 1.2237432375705981
50 1 4.2080671730992334 5.720790110221091 3.4433978492024871
51 1 2.7094979927480294 6.4745724568568842 5.7181555950939762
52 1 4.1277367825692109 5.5261991234104384 8.0289111214060611
53 1 2.6193908365766086 6.3826332147241134 10.4326483429754635
54 1 4.127405446607777 5.4410900103232809 12.7819799383138726
55 1 1.373338508642118 0.812431671731338 1.0752003224237832
ITEM: TIMESTEP energy, energy_weight, force_weight, nsims
2 -89587.0944441716972080 1 1 510
ITEM: NUMBER OF ATOMS
55
ITEM: BOX BOUNDS xy xz yz pp pp pp
-4.5505502902389994 8.6549055782945992 -4.4052777001073249
-0.2546705966413186 7.4498917295342198 -0.1452725901316749
0.0 13.8697891109123362 -0.2546705966413186
ITEM: ATOMS id type x y z
1 1 -0.0266589685794246 1.6631513476047458 1.2309812320240694
2 1 1.3798866319713201 0.8076565673176674 3.5651599420144616
3 1 -0.0181170161979173 1.5135960516501292 5.7540706417938914
4 1 1.3296168577357317 0.6897864526248092 8.0029210221950393
5 1 -0.0863738000354426 1.4525559656090152 10.3816328510627472
6 1 1.3383147934516175 0.6059123985336794 12.6609565451194844
7 1 -1.4317373373725551 4.1169837584546327 1.2237328802347065
8 1 -0.1013903337031 3.2216016754573009 3.3900913029197924
9 1 -1.4617307477764526 3.9896089133336336 5.8314238426443596
10 1 -0.1445882454753281 3.1715669037817063 8.1656469359599075
11 1 -1.5666458588457728 3.9922779372318974 10.4081546618006353
12 1 -0.2595114819836957 3.1331051059376365 12.7217242521511232
13 1 -2.9200298460456468 6.6043009994145878 1.1894328917634205
14 1 -1.5559269891341586 5.761791051182076 3.4979871663714018
15 1 -2.976270253351358 6.5578477327464998 5.8210561752839532
16 1 -1.6377391820107272 5.6899766833363038 8.0290794444582208
17 1 -3.0465617508882721 6.4411559658977078 10.3308472312542321
18 1 -1.5791288176910008 5.5353184600016006 12.6386983075542912
19 1 2.8179408554938008 1.6822260182620362 1.0678780599953843
20 1 4.2734072370624254 0.7597239107774728 3.4210056758691052
21 1 2.8260370924007648 1.5401266093341878 5.7491205140602064
22 1 4.1709440662687278 0.7000242850636152 8.1726289877983405
23 1 2.8068098492684368 1.4700852273378808 10.3437960663681796
24 1 4.1434807977163661 0.608537826447876 12.6161182908817242
25 1 1.4383499078904725 4.1268509636694839 1.1615435198191977
26 1 2.8092340398231538 3.276295248908244 3.5575676194551482
27 1 1.3501998546809096 3.97757591215107 5.7850044324479582
28 1 2.775915006920199 3.2145262144789371 8.1292387395437622
29 1 1.341208096931918 3.949277861874867 10.3878298728375036
30 1 2.7300971263163336 3.0675182230622724 12.6267161967413718
31 1 -0.0578832516499896 6.6607455821917326 1.0500373502620179
32 1 1.370984250879038 5.6909461968139424 3.3679148971103548
33 1 -0.1134677457991954 6.4786546915529852 5.7356057915505332
34 1 1.2843526374118633 5.6473720710087002 8.1323885686508497
35 1 -0.2500816984360496 6.4725337908394716 10.4846812232200914
36 1 1.305337243202896 5.5268624358153584 12.8170804392675564
37 1 5.6903580359737066 1.6190339602812374 1.0808934700970647
38 1 7.1561887093735868 0.8146312631891376 3.3917029724144805
39 1 5.7781359330624548 1.502899996202111 5.8517846930591802
40 1 7.1115396142872305 0.6664951298300372 8.1822948438297356
41 1 5.5452117844310402 1.5174818966512946 10.3835330121709433
42 1 7.0978617542817846 0.5754894370528226 12.6986809845222518
43 1 4.2077460432880694 4.1136255238870785 1.2062361412712903
44 1 5.7070383431112718 3.1966569894255645 3.4415093851117669
45 1 4.1752067309775276 4.0278683919757992 5.844376838695041
46 1 5.633363043261162 3.1056211248798142 7.9829901352426588
47 1 4.1891763891174749 3.9988131293636088 10.3752416522404403
48 1 5.5324342160809304 3.121726796535631 12.8045393759534694
49 1 2.8078528499533766 6.6331828606992486 1.2592936325361748
50 1 4.1990821976215953 5.689993768875488 3.4540296437421874
51 1 2.7639373866323398 6.5144128214194464 5.8483921426426502
52 1 4.2784078263913488 5.5998552740127884 8.0661672605407997
53 1 2.7318827209169902 6.3762796343762007 10.3441386501592199
54 1 4.1557096428034024 5.4997375017593716 12.8008444641343218
55 1 1.3714217773095474 0.8496382493013942 1.098215449717683
ITEM: TIMESTEP energy, energy_weight, force_weight, nsims
3 -89585.2844604704625980 1 1 510
ITEM: NUMBER OF ATOMS
55
ITEM: BOX BOUNDS xy xz yz pp pp pp
-4.4761613767935576 8.6549055782945992 -4.3791225754497187
-0.1694284316006951 7.4652974614635844 -0.0970388013438391
0.0 13.8994321625179946 -0.1694284316006951
ITEM: ATOMS id type x y z
1 1 0.0480296788565398 1.5885701492766352 1.1888212127465967
2 1 1.461461784724059 0.7585565291090156 3.5183451940363688
3 1 -0.0583877139881794 1.561426261140144 5.8702569907103088
4 1 1.4453764239471365 0.6741734989491052 8.0582249850273477
5 1 -0.0793349325162922 1.548455712213938 10.3985460452209644
6 1 1.3978584330476785 0.6311059291547758 12.7029926710031198
7 1 -1.4390937168709814 4.1244859579200979 1.2366686180228486
8 1 -0.0204327378026363 3.2609130704086282 3.4843527427397146
9 1 -1.4604424069210236 4.0251923920211148 5.779802266083074
10 1 0.0023383004929651 3.1639504278207418 8.1677122021147177
11 1 -1.5309064962480066 3.9811513175004918 10.3622268289803064
12 1 -0.176481865003106 3.1711884110799584 12.6754870846967158
13 1 -2.914181651987772 6.5827915326924638 1.0699407594037964
14 1 -1.5976853827735292 5.8075492253641636 3.5585812702604258
15 1 -2.9501261091776518 6.6163719028174316 5.8210071327288588
16 1 -1.6352059927721308 5.7503771987416466 8.218314474845581
17 1 -2.9489130510043994 6.465353524263474 10.494895519028324
18 1 -1.5320171863773848 5.6645828946080954 12.7138814861592398
19 1 2.7976892095747844 1.6515459694865042 1.110118458012771
20 1 4.3086475706510239 0.7475264649755758 3.3652443387094491
21 1 2.782398833887993 1.638070676125847 5.7533071684948824
22 1 4.219001431378886 0.7662259784244068 8.1377074979054918
23 1 2.8011631462141664 1.5167982906764258 10.4285618689759243
24 1 4.2718450614242292 0.706660539894226 12.8131220418564046
25 1 1.3721467741872193 4.0765824233404153 1.1228350484982588
26 1 2.7955263035614006 3.2529371894296011 3.423289757363341
27 1 1.4036462957831497 4.1338186890245385 5.838942959991372
28 1 2.8237153783410824 3.269922304303079 8.2180142471108724
29 1 1.3218055631087713 3.964912608390772 10.5087977310772764
30 1 2.7665511160135874 3.1089186451090418 12.6989618356759912
31 1 -0.0612861053057883 6.5659937296699376 1.1860691251784179
32 1 1.3009672982875906 5.8016320514067736 3.5550438647750654
33 1 -0.1033414082687674 6.5314150583895652 5.7140371028061204
34 1 1.3888935564210585 5.6739445872457194 8.1500821623597819
35 1 -0.1652525334818064 6.5072694445695998 10.4266896154636317
36 1 1.3818546701354757 5.6490633169032628 12.8248517726583504
37 1 5.772725801777856 1.657814400966663 1.0867382231721994
38 1 7.2213906735420546 0.7440183962758698 3.3718076505765904
39 1 5.7418061309159062 1.6298728490285884 5.7792893770362772
40 1 7.1484532230671833 0.7118095933417352 8.0513211370722253
41 1 5.7097609868213618 1.512323912407513 10.3142557187578081
42 1 7.1891628459362753 0.6447705424619988 12.72368197577703
43 1 4.2753446973586247 4.0796648413958927 1.055100335683876
44 1 5.7977088091627182 3.2498515610775054 3.3716186182991801
45 1 4.2997735242205755 4.0305836161529713 5.7970903798068144
46 1 5.6250903793547656 3.2759579980129714 8.0015194716339249
47 1 4.281846573005133 4.0209958738017297 10.4629699132942378
48 1 5.714007289635421 3.157486113040711 12.778844652200414
49 1 2.760382480786825 6.64473830562501 1.1636646304756553
50 1 4.2824768425765205 5.7907191989069622 3.3923885397796308
51 1 2.8027514091779526 6.5824051154051118 5.8007709494434484
52 1 4.3160317929538659 5.648532099521308 8.1498264128079914
53 1 2.7358516912871616 6.4786230838741634 10.4915276866153438
54 1 4.1458012564122857 5.6212875620494006 12.8320475086888842
55 1 1.4104890519621101 0.8060985080166098 1.1898191919758654
ITEM: TIMESTEP energy, energy_weight, force_weight, nsims
4 -89588.5182359533212110 1 1 510
ITEM: NUMBER OF ATOMS
55
ITEM: BOX BOUNDS xy xz yz pp pp pp
-4.4015734005198146 8.6549055782945992 -4.3529587958865337
-0.0845411176887817 7.4805820247148534 -0.0486146046332808
0.0 13.9283741667718122 -0.0845411176887817
ITEM: ATOMS id type x y z
1 1 -0.0725385336993155 1.6541304574548292 1.0739166477057738
2 1 1.4876175521780406 0.7868361980153958 3.3821755639327824
3 1 -0.0682023077283813 1.5960316188127056 5.799878073012617
4 1 1.3484194146321693 0.817935449220655 8.1703132515200938
5 1 -0.060460356572748 1.6177031970045286 10.3818103595731195
6 1 1.4502584142688553 0.7411929838863256 12.8288223464120962
7 1 -1.4312869076029664 4.1613405091798184 1.2345901935814032
8 1 -0.0409081463106945 3.2625135940129191 3.538125998128459
9 1 -1.5484015437278338 4.1353144646590181 5.7757179151829342
10 1 -0.0936655537252114 3.3234731761520684 8.0245458516777433
11 1 -1.5540466067934734 4.1482366945334999 10.4497237191728836
12 1 -0.0250194456927755 3.2459322101958388 12.80388777097874
13 1 -2.8403865691367782 6.6201388265260778 1.2540913102523004
14 1 -1.4617338168760754 5.750285323398983 3.551650449444395
15 1 -2.8555038022076142 6.5901007947801986 5.9138052095097268
16 1 -1.4621051242613644 5.7860539017556666 8.0182516193917799
17 1 -2.9276721576579324 6.6055439671880354 10.5528117948934118
18 1 -1.5491984118181702 5.7313097057161242 12.8569242341309736
19 1 2.8591548145688158 1.7083217168908412 1.2649986200622996
20 1 4.3356494641372807 0.7988493165966816 3.5205706753286604
21 1 2.8484952430011172 1.6138032256084192 5.8549703641918658
22 1 4.3308511974627067 0.8157769702546552 8.0759624449143814
23 1 2.9274777867430904 1.542148141972425 10.4391896897905561
24 1 4.3021612927991848 0.717573509846299 12.6824546336431556
25 1 1.4623604440053504 4.1557283983741265 1.1674512515853131
26 1 2.8298001481896984 3.2450149434699349 3.4436094438701628
27 1 1.4435167428674569 4.1531344140452031 5.7532124482042644
28 1 2.8218313890676324 3.2859828624764802 8.1034027348603388
29 1 1.4145674713032026 4.1084788749281271 10.3511317226333901
30 1 2.8638271177735702 3.2870696099087487 12.8465002389045644
31 1 0.0541036532285177 6.5841137835086282 1.0837765437784317
32 1 1.4194417201312477 5.8311526340178608 3.4000637748751674
33 1 -0.0177008346894154 6.5589891059736392 5.8489700206008212
34 1 1.319531776180724 5.7906628894577308 8.1514458758737867
35 1 -0.0134207875331645 6.6185743928152264 10.4772629005754272
36 1 1.3058302103586057 5.786704328956997 12.7329129547371204
37 1 5.7226505294716078 1.6411968455477766 1.1919331548582479
38 1 7.2563073983935507 0.755014127405446 3.5417236971757364
39 1 5.6844495543154148 1.6327022818554564 5.8392995504168308
40 1 7.1985752673503996 0.7372028767593398 8.0877207783859717
41 1 5.7245263382001426 1.5544294103539598 10.339912417242056
42 1 7.0797085530548403 0.797226873273005 12.6831733377501622
43 1 4.3851060185088402 4.1189969018098065 1.1399009274834386
44 1 5.6767915100996502 3.3590085745801308 3.5870605550885788
45 1 4.3058240813814992 4.1530504836808335 5.9125920481198006
46 1 5.7341799273967152 3.2408296305412958 8.0907808421904104
47 1 4.3483926361728935 4.040667070454175 10.5452960441930248
48 1 5.7069290941076156 3.2980622675532616 12.7613477305985832
49 1 2.8512135205787802 6.6887873856900892 1.1647380042976261
50 1 4.3796671369538416 5.7481468675276126 3.4823470381027888
51 1 2.905224262825557 6.5767011485468094 5.8109664516867846
52 1 4.3063596911211102 5.8009932989399982 8.111190088856981
53 1 2.8154333744422676 6.5441784427021946 10.3519339969853963
54 1 4.2612822978981848 5.7150744812358338 12.8559576049638
55 1 1.4673467107629118 0.8234652238038428 1.1051733121734264
ITEM: TIMESTEP energy, energy_weight, force_weight, nsims
5 -89588.0697702132067640 1 1 510
ITEM: NUMBER OF ATOMS
55
ITEM: BOX BOUNDS xy xz yz pp pp pp
-4.3267950163233486 8.6549055782945992 -4.3267950163233486
0.0 7.4957454192880252 0.0
0.0 13.956632433484943 0.0
ITEM: ATOMS id type x y z
1 1 -6.339183601414276e-04 1.6822206725310442 1.161678904937876
2 1 1.4599822599790964 0.8245237508017216 3.494023390437548
3 1 0.0153630175608098 1.6929260961388718 5.8545170078923166
4 1 1.4133238150692322 0.8804907339748356 8.096690482565732
5 1 -0.0616530653172919 1.6784413176906392 10.4524597799417656
6 1 1.4870352831457362 0.8338402127833546 12.7889340329785046
7 1 -1.3930759144610734 4.1960028512379788 1.1150414219981424
8 1 -0.0814033889471945 3.3817257844244249 3.585426771907685
9 1 -1.4544051352020096 4.1205836591272709 5.722816641596979
10 1 -0.0681097747366587 3.3386192516671831 8.0919019619778005
11 1 -1.4305433015540283 4.2221630027512944 10.4953415330936438
12 1 0.0364188679510738 3.3126637340038143 12.8092493071486846
13 1 -2.9168037607344268 6.6996920087378432 1.2177957326264319
14 1 -1.4626622842658118 5.8029197661377722 3.5210908833790496
15 1 -2.8564562808127506 6.6240404485191364 5.7536956908560652
16 1 -1.4596513625548042 5.8557985021981392 8.20709302776757
17 1 -2.9603020870531748 6.718630009539674 10.3818252631958963
18 1 -1.451354483195413 5.7900278335911396 12.7082186406259314
19 1 2.8815147304649954 1.7138542173495238 1.1487718112633889
20 1 4.3528341427953814 0.8134270492830076 3.4533746984750234
21 1 2.8765166670062198 1.621804214877041 5.8673640880473404
22 1 4.4014089382695723 0.7937402235137896 8.0805259108812688
23 1 2.836184768261623 1.705196631390246 10.4437215323751609
24 1 4.3653082295566197 0.8009586263525638 12.7668658057746782
25 1 1.3989604277544032 4.1977493599206737 1.2566077317607105
26 1 2.8565510902454344 3.3082577348463569 3.5243944182760552
27 1 1.4756163393471836 4.210784461204816 5.7455198955765302
28 1 2.8984527863752244 3.3754316069958486 8.0943066897460909
29 1 1.3623163646093109 4.1872208359047418 10.4084182306346609
30 1 2.920509736396332 3.3498988493741275 12.8146547108901744
31 1 0.050058448693933 6.6449565765371182 1.208783935064131
32 1 1.5182109269339352 5.8173138460664306 3.5933639087726076
33 1 0.0116126527611154 6.69609555008567 5.7875265678748322
34 1 1.4095083527918946 5.792778772160018 8.0914874499945277
35 1 -0.0042150538014491 6.6462346011311074 10.4713207730123764
36 1 1.5330220756434548 5.787825583586952 12.7373112409335292
37 1 5.8181520318053154 1.6119233232653352 1.1774038427006832
38 1 7.2237676370561213 0.7794945593444328 3.4634025388784826
39 1 5.7452911101000534 1.7003258960167926 5.8213700058627894
40 1 7.2297038954472797 0.8863748941289768 8.1819431761224308
41 1 5.7718295071907316 1.6395548896044568 10.3971161496900244
42 1 7.145946929046338 0.89149823612306 12.889867003074226
43 1 4.2760975928345602 4.1569994895232565 1.1103366412048146
44 1 5.7442164415492138 3.365296609614429 3.4232939685911337
45 1 4.3291092272021823 4.1608478052215183 5.8986088010761836
46 1 5.7908884717424014 3.3309945794266831 8.1158264212952815
47 1 4.3473344025884302 4.1965980134242713 10.4518107965336072
48 1 5.7544115576210482 3.3562320046788843 12.8096052012757404
49 1 2.8372275315554858 6.629935102716865 1.2339156430871072
50 1 4.3244962218150551 5.7839577789505992 3.595280154405725
51 1 2.9348153306033958 6.6774708714423642 5.892654901680058
52 1 4.2531944924453127 5.8428983243315448 8.0471583940592932
53 1 2.817743856537653 6.6968743580347328 10.3704715427112557
54 1 4.3675151783661672 5.835335866778026 12.6983680494543752
55 1 1.4760738606054002 0.809358358669418 1.0784331751251115
ITEM: TIMESTEP energy, energy_weight, force_weight, nsims
6 -89587.4298132947694770 1 1 510
ITEM: NUMBER OF ATOMS
55
ITEM: BOX BOUNDS xy xz yz pp pp pp
-4.3006312367601645 8.7037192457561812 -4.3006312367601645
0.0 7.594982566648751 0.0488136674615815
0.0 13.9842069626573906 0.0841949214656499
ITEM: ATOMS id type x y z
1 1 -0.051989699621598 1.686152198643146 1.1092524678505171
2 1 1.5502981028893548 0.801605309090352 3.5829146422128938
3 1 -0.0163746484764344 1.6938511085604056 5.9377250415996458
4 1 1.428422511267556 0.8625041203002092 8.0815906710581924
5 1 -0.0256664409436249 1.7889178636273502 10.5132247098150008
6 1 1.402174922726783 0.9639515347102174 12.8437557290731856
7 1 -1.346958588405659 4.1238378462876915 1.1366027798280822
8 1 0.0697813554454995 3.3472793383636268 3.4676400273783168
9 1 -1.4127415750447088 4.2249333271748766 5.8167364798001264
10 1 -0.0136508324611144 3.364861551582897 8.1087158373036576
11 1 -1.3192196001991332 4.2150003371184353 10.4058861324317302
12 1 0.1365831432354599 3.3589202857818714 12.9042821736489604
13 1 -2.829100165505488 6.7243576528710572 1.0907723383493653
14 1 -1.3520539261510461 5.832543557172814 3.4009269696422631
15 1 -2.8812909751642498 6.6839818590868446 5.9144371417447328
16 1 -1.3948257561530986 5.8351273252840806 8.2029036664592443
17 1 -2.7928224948948404 6.7091188857137426 10.4574123414063376
18 1 -1.3702605111765996 5.9607014230034548 12.806101853405533
19 1 2.8504080858378034 1.7141163250476752 1.0625899660575218
20 1 4.3578792849557848 0.9098497164419852 3.5372044649140562
21 1 2.8672645517151364 1.6618841888387956 5.851231323114913
22 1 4.3893346025553371 0.9140699137317854 8.1496587984489271
23 1 2.9165368828391954 1.7739219671977666 10.5362021602753408
24 1 4.3569009025133836 0.8553025778692158 12.741061306822214
25 1 1.4068654438993396 4.2301731606469355 1.1272193769561394
26 1 2.892116098443529 3.3697675412740473 3.4109047013101193
27 1 1.4641504178774478 4.199817583219577 5.827519701789032
28 1 2.9227861950115094 3.422294736791041 8.0931961644165025
29 1 1.471566868463443 4.2112636403472905 10.5193945419269248
30 1 2.9621781706173698 3.3882086513996122 12.8056138045825368
31 1 0.0011425471352575 6.7084811574208906 1.0569333543411268
32 1 1.4304955307005616 5.8716738581624784 3.5827859875088374
33 1 0.0703773304788858 6.7360696430569994 5.7777904634091258
34 1 1.483734853477391 5.8641964820255722 8.1671264713659824
35 1 0.0829477335870725 6.7878956624544662 10.5936185172226196
36 1 1.518259465300967 5.9143478246865682 12.81183677668092
37 1 5.7703300131275306 1.7222973787258772 1.183647050471158
38 1 7.1524648634616348 0.8705110849329518 3.541673817459321
39 1 5.8771527545413554 1.658016481930175 5.920899243782177
40 1 7.2378460806152845 0.8768045373504738 8.1788746036353111
41 1 5.8483196898151384 1.7251357153552328 10.3782813078874448
42 1 7.3344339313182765 0.893547278813154 12.8194903331515794
43 1 4.347215576998396 4.1383326963309726 1.1263369734967954
44 1 5.7341582999327204 3.3621860538360329 3.4088923739281927
45 1 4.4233191368091376 4.2069690531366133 5.7274207483503306
46 1 5.7791545919535476 3.3776767542727098 8.2477356355608276
47 1 4.3415404969390306 4.2244042024841777 10.5446668007498392
48 1 5.8643863062147262 3.3559906335909706 12.7372939614664756
49 1 2.9331104615213502 6.7397815246109642 1.0639044815120116
50 1 4.330787914868564 5.9133762980553888 3.4660696009364106
51 1 2.8738183505705068 6.702294638563596 5.7347946206817388
52 1 4.4392612708226027 5.8815260233177566 8.0790371548668105
53 1 2.97108284683915 6.7715887448881232 10.5949498137254636
54 1 4.4308342033565511 5.9474498709416368 12.9144640747384702
55 1 1.4837382447792418 0.880108751055186 1.1577818612730269
ITEM: TIMESTEP energy, energy_weight, force_weight, nsims
7 -89590.4618132562166040 1 1 510
ITEM: NUMBER OF ATOMS
55
ITEM: BOX BOUNDS xy xz yz pp pp pp
-4.2744674571969803 8.7527233211404846 -4.2744674571969803
0.0 7.6937696589194068 0.0978177428458856
0.0 14.0111064091947295 0.1680609565193246
ITEM: ATOMS id type x y z
1 1 -0.0679763372711953 1.737833210957885 1.1864632929518917
2 1 1.491936758393131 0.8271823656579568 3.47066594863009
3 1 0.091729364570667 1.7647673656373154 5.7674842045191276
4 1 1.4652475953537388 0.9299885535816992 8.11424785142502
5 1 0.1055829556345878 1.8051530134668702 10.4565489609395836
6 1 1.5605594248180636 0.9880241981884058 12.9405864228895648
7 1 -1.3831991326641709 4.2113224849239552 1.087294082898252
8 1 0.0085622723437247 3.3925631072249965 3.5281871448823986
9 1 -1.3293613856446349 4.2431021495032857 5.8085171307490954
10 1 0.0472085832041291 3.4414492837363566 8.0826920375702329
11 1 -1.293333277658548 4.2913503329613088 10.4823714300517318
12 1 0.0662356270376974 3.4805226959572222 12.7987561960412074
13 1 -2.8096206589939686 6.6572505837392288 1.0705858385052871
14 1 -1.4730156436383728 5.9418146454579794 3.4205019843532498
15 1 -2.7104747994713954 6.7097546427315456 5.8504173444657912
16 1 -1.3943480571232432 5.981523756428361 8.131904647721889
17 1 -2.7605021036053118 6.849606043680054 10.53207583003835
18 1 -1.2906963355409855 6.0125982455783316 12.8075761875258004
19 1 2.9762920412348946 1.664034567112634 1.2088586454363484
20 1 4.3185026893940935 0.9331729129543934 3.5812135781986362
21 1 2.9351539763578712 1.7681931954891284 5.8906558409623582
22 1 4.4259505908891539 0.9503878595058728 8.1584276721544935
23 1 2.972301100142845 1.7627539795544498 10.5833536772747206
24 1 4.4128597957463267 0.9530455976539268 12.8413415528613158
25 1 1.4854640020033426 4.2052422248887194 1.156665872951457
26 1 2.9844216658491458 3.4049447094187087 3.5319771491660848
27 1 1.4620231498918068 4.2578185290202404 5.9435869987550136
28 1 2.916702743809593 3.4521062434993502 8.1619178387610258
29 1 1.4473074005056397 4.3565537680465578 10.4144806139459796
30 1 2.949041036928322 3.494039058925488 12.9118944791848164
31 1 -0.004603814389774 6.7285923833874284 1.1888185599392771
32 1 1.5706210763917026 5.8657813867423228 3.4286984816026292
33 1 0.138533411855454 6.7793288232485526 5.9350976693816824
34 1 1.4796107530625776 5.9611595400125764 8.1951143531763293
35 1 0.1416664060728846 6.835232492456088 10.5440427160224424
36 1 1.5977627666114602 6.0583399900951731 12.8870471830787512
37 1 5.8280007720231826 1.6802859703628452 1.1049915114037061
38 1 7.2632092508961464 0.9347007509869136 3.5969088195982164
39 1 5.7852340164104446 1.6839934200373916 5.7311141745021398
40 1 7.2386552554966795 0.879668695603279 8.1975088512616612
41 1 5.8475810754371222 1.7778924526082938 10.4217747959426035
42 1 7.2856091091556046 0.9486786275889188 12.9110636205747494
43 1 4.357501290713417 4.2379925302575261 1.0685710414036451
44 1 5.7788136182562306 3.3866418319424008 3.5114312627276418
45 1 4.3594277613255512 4.2276844311493864 5.7572743112787466
46 1 5.8251743703632162 3.456812654714177 8.2385109530575278
47 1 4.4809504951437918 4.2596368865340129 10.5269085339946394
48 1 5.8572608796650148 3.4440470505160681 12.7451090707110436
49 1 2.9102763436843464 6.7535545360624036 1.1688149033188695
50 1 4.4569381276682032 5.8695886433590738 3.5212418394353598
51 1 3.0660778035123446 6.7069092146724164 5.889006733737996
52 1 4.461570727051857 5.9238309311871076 8.1750714654579753
53 1 2.9803509220859658 6.851413554950109 10.5950543522370406
54 1 4.4366871746981431 5.963695464064589 12.8074528897893956
55 1 1.3796587097827276 0.891849981718457 1.1531266674724945
ITEM: TIMESTEP energy, energy_weight, force_weight, nsims
8 -89588.409511362360720 1 1 510
ITEM: NUMBER OF ATOMS
55