ITEM: TIMESTEP energy, energy_weight, force_weight, nsims
0 -26032.239400569793360 1 1 499
ITEM: NUMBER OF ATOMS
16
ITEM: BOX BOUNDS xy xz yz pp pp pp
-0.3490451612490232 17.4841692825774936 5.7088113023796946
-0.2056095256922338 10.298963596640597 -0.3490451612490232
0.0 19.9958766904696432 -0.2056095256922338
ITEM: ATOMS id type x y z
1 1 -0.0922399973861794 0.0276189891367984 9.8589430071840294
2 1 2.8230295102587522 -0.0725639700014116 10.0150708123832164
3 1 5.5429916178355478 -0.1664772599258654 9.8398049536035792
4 1 8.5975778492786184 -0.0339396997218754 10.0342948482334364
5 1 1.3782878935463041 2.5218032579527586 10.1824762920358278
6 1 4.0335672469471948 2.3974465467310848 9.8371095094257034
7 1 6.92193897704648 2.3552062922222677 10.2179229826450246
8 1 9.9083758792459804 2.3074442929343557 10.0096459310370935
9 1 2.579481971613478 5.1825430974010578 10.1189233971505086
10 1 5.499071834852078 5.1254029899108202 9.7137209531318246
11 1 8.7467353947115854 5.1061083007069241 10.0505155034047444
12 1 11.5813349442738272 4.934431535093018 9.6904677481284764
13 1 4.2295529676045325 7.7267561475086808 9.73177523019565
14 1 6.9320805599998394 7.4601448740400684 9.9197684644887686
15 1 10.1947504795065065 7.7515226460631492 9.8990847296401476
16 1 13.0623911172347658 7.7498327173791922 9.7780796818477694
ITEM: TIMESTEP energy, energy_weight, force_weight, nsims
1 -26032.9531387959905264 1 1 499
ITEM: NUMBER OF ATOMS
16
ITEM: BOX BOUNDS xy xz yz pp pp pp
0.0 18.083758735571184 6.0291599162309755
0.0 10.2733875191076081 0.2792408391424106
0.0 19.9973957116490872 0.1586376227092248
ITEM: ATOMS id type x y z
1 1 0.0357688105983905 0.1096380028182576 10.0882341953838797
2 1 3.123873582731918 0.0572007328866499 9.8946354080202656
3 1 6.1511576048059817 0.0294829023369943 9.8446059234288602
4 1 9.0289174290004723 -0.0657044593563416 9.6874603887080078
5 1 1.5016871746325196 2.5875280838457996 10.0128660106862473
6 1 4.521175770534252 2.7139381789104494 10.2333193007510382
7 1 7.6657082091596466 2.5966006536682192 9.7254274442061438
8 1 10.4037930793258529 2.5411699648598298 10.0593799531115433
9 1 3.3317717266776481 5.2324030222954248 9.7044781724586216
10 1 6.2717188944011744 5.1233056465098557 10.030289741569808
11 1 8.9698124806311022 5.1763727276239031 10.0222627869311527
12 1 12.2110853410682783 5.2359238227547041 9.6991048722308992
13 1 4.779396165581268 7.5731494622073052 9.9987718461886778
14 1 7.5388854672214034 7.704626572564429 9.7159086838474008
15 1 10.6607643042679072 7.7506713534948358 10.1295828104968582
16 1 13.4851025295188284 7.5533418915778894 9.8335453638607486
ITEM: TIMESTEP energy, energy_weight, force_weight, nsims
2 -26032.0492038290103664 1 1 499
ITEM: NUMBER OF ATOMS
16
ITEM: BOX BOUNDS xy xz yz pp pp pp
-0.3490451612490232 17.4841692825774936 5.7088113023796946
-0.2056095256922338 10.298963596640597 -0.3490451612490232
0.0 19.9958766904696432 -0.2056095256922338
ITEM: ATOMS id type x y z
1 1 -0.021803207531622 -0.1331714279572161 9.791526908922112
2 1 2.993430363379817 0.012804777005708 9.747683949690586
3 1 5.6954268351679184 -0.0449834597918305 10.1080296435295391
4 1 8.4912098510120444 -0.2284761959326558 9.6905877233886208
5 1 1.2461732937173615 2.624482343104965 9.9565708755375794
6 1 4.3790946955678667 2.4841684325389144 9.8314526759099722
7 1 6.9780799920107226 2.3655072093625722 9.7220452365980688
8 1 9.9635590555499114 2.3900020547488343 10.1629663151489353
9 1 2.6154513167101734 5.0889993953080017 10.1318707273075877
10 1 5.4058863984977599 4.933894029465157 9.8585250933611982
11 1 8.5039057868001572 5.0608144502233881 10.1932460712213136
12 1 11.5732465019964152 5.062200806942748 9.779577373011886
13 1 4.0890866763134675 7.5676924443066254 9.9567648355414776
14 1 7.0168060295192483 7.5623039596617652 9.7259044407993276
15 1 10.187740044548022 7.7723087028366606 10.1067479078336824
16 1 12.820381036091309 7.6207403174190552 9.9685863978408804
ITEM: TIMESTEP energy, energy_weight, force_weight, nsims
3 -26032.3150667984846224 1 1 499
ITEM: NUMBER OF ATOMS
16
ITEM: BOX BOUNDS xy xz yz pp pp pp
-0.2792408391424106 17.519754414393649 5.7443964341958518
-0.163830555578492 10.2791456691599255 -0.2792408391424106
0.0 19.9973603855751456 -0.163830555578492
ITEM: ATOMS id type x y z
1 1 -0.3539284102624662 -0.1786171591581606 10.0738102757561805
2 1 2.9292591598491246 -0.1421256469077532 9.7704863139557006
3 1 5.6565696744770886 -0.1656578570900035 9.6802942191446758
4 1 8.7712387730733248 -0.0202440403804646 10.1711414282248498
5 1 1.1257182503958856 2.4265719482695469 9.7899657427072882
6 1 4.312620725243602 2.3453420572416279 9.7047689885205842
7 1 7.0775678174162868 2.4407735281890433 10.10302042007139
8 1 10.2100231628866975 2.6392086241492506 10.1266972947679097
9 1 2.7679511413975426 5.0718441436073132 9.7610015659248202
10 1 5.663606201914365 5.0344311787670684 10.2061588059960329
11 1 8.557109711904543 5.0335440979431896 9.9188347322400486
12 1 11.3992943954444997 5.0140014909835378 9.6808081513065858
13 1 4.1084069887222325 7.5414250659435648 9.8251490985696678
14 1 7.1691264946716151 7.77314181887055 10.1192302803999361
15 1 9.9901252392220848 7.5941358503671514 10.0889662751924085
16 1 12.8715579750735198 7.615362565569062 9.79357926572896
ITEM: TIMESTEP energy, energy_weight, force_weight, nsims
4 -26032.4226498789248576 1 1 499
ITEM: NUMBER OF ATOMS
16
ITEM: BOX BOUNDS xy xz yz pp pp pp
-0.2094247416778178 17.5553513215677874 5.7799933413699902
-0.1223930708461759 10.2591746620255098 -0.2094247416778178
0.0 19.9985025952992252 -0.1223930708461759
ITEM: ATOMS id type x y z
1 1 -0.1238781325879527 -0.0474392593343618 9.7669606906041758
2 1 2.7711791353013004 -0.1711052121990431 9.7354150526103496
3 1 6.0067725627649455 0.0206564451585861 9.7571674238832582
4 1 8.8590261835787808 0.081822044179848 9.8945591365632222
5 1 1.2106211318484763 2.4710974554214152 9.7345031208920042
6 1 4.3013344416457962 2.5244652407847208 10.0596107781827442
7 1 7.3236753972078939 2.5880018086392812 10.1565915166683887
8 1 10.4199496506981255 2.6132266277830324 9.838165359094738
9 1 2.990450976003118 5.1037626226012653 9.7437424290910322
10 1 5.6371306007828244 5.0372480300945055 9.8792302843239242
11 1 8.6584605008700742 5.1019107170762643 9.8124912814628918
12 1 11.4630968483929436 4.9175099256531656 10.0110204164269483
13 1 4.2719394203373806 7.5922869804069748 10.23700149590357
14 1 7.1626482909144036 7.7034656899074658 9.8925152895979824
15 1 9.8977392359517484 7.4791003386288244 10.2023420910556553
16 1 12.9747463157841914 7.60271510991182 10.3190253542981871
ITEM: TIMESTEP energy, energy_weight, force_weight, nsims
5 -26032.483778515404992 1 1 499
ITEM: NUMBER OF ATOMS
16
ITEM: BOX BOUNDS xy xz yz pp pp pp
-0.1396204195712053 17.590948228741926 5.8155902485441278
-0.081261745421345 10.2390387998793724 -0.1396204195712053
0.0 19.9993268703578408 -0.081261745421345
ITEM: ATOMS id type x y z
1 1 0.1794706572510253 0.0793072402119555 9.7950303226414182
2 1 2.7528927131474666 0.0569475619070143 10.2049405260416464
3 1 5.8599401010124376 -0.1322563258838792 9.977836169832612
4 1 8.770643055551151 -0.1599660566405047 10.0279384835082315
5 1 1.1613448112903475 2.3630468949134618 10.0188327899841578
6 1 4.147940281241115 2.4114325756128818 10.2675304194151203
7 1 7.0832337489456974 2.3801546696707736 10.3097889970921859
8 1 10.0620796508854955 2.3597985858194535 10.0867385044397722
9 1 2.90700081694018 5.1371752911011113 10.1483364312004714
10 1 5.715029495475914 5.2438310814517744 9.6963056454785832
11 1 8.6438579363408934 5.1783523692860776 10.2995913403209905
12 1 11.6989187757551996 5.0621966724002494 10.2136482329610043
13 1 4.2726194431864633 7.6097314139253874 10.1628859414986579
14 1 7.2123220154949488 7.7140018168112876 10.0492057677021727
15 1 10.240892805429958 7.6932229283505338 10.2887977036090561
16 1 12.8775923949479552 7.5281738716034284 9.8850672922117706
ITEM: TIMESTEP energy, energy_weight, force_weight, nsims
6 -26032.6080133634932288 1 1 499
ITEM: NUMBER OF ATOMS
16
ITEM: BOX BOUNDS xy xz yz pp pp pp
-0.0698043221066126 17.6265451359160644 5.8511871557182662
-0.0404719053779398 10.2187380827215098 -0.0698043221066126
0.0 19.9998096600350266 -0.0404719053779398
ITEM: ATOMS id type x y z
1 1 -0.1816048652977358 -0.141032882659568 9.8879018959593862
2 1 2.9804313110108164 0.1325117348798097 10.3170118120821997
3 1 5.6077553252731126 -0.1340597762829829 9.8955558231162844
4 1 8.9121062315015446 0.1188932009514675 10.1145277391411082
5 1 1.4490012400718804 2.4926338995104742 9.9386014134475768
6 1 4.3925362252023677 2.4107771593855305 9.8661621028589278
7 1 7.3429039377601662 2.6720063640024804 9.9558252495267964
8 1 10.1662917543579159 2.5803952333526198 10.2255526825068604
9 1 3.048414770803817 5.092733846063199 9.903615746409276
10 1 5.7099900325228354 5.0760744735876839 10.1544713589941296
11 1 8.6766001068361548 5.2172665736014503 10.0530723240177498
12 1 11.5478270616953864 4.9793516409613616 10.0309665344005143
13 1 4.4675362681543938 7.7316056660221434 10.1362975319560569
14 1 7.397561674876358 7.5358849447963312 9.7748389719892756
15 1 10.3681117747721192 7.66182297071345 9.8837879351123164
16 1 13.0542998407558581 7.7092564159495014 10.2069188598466045
ITEM: TIMESTEP energy, energy_weight, force_weight, nsims
7 -26032.6294103590735184 1 1 499
ITEM: NUMBER OF ATOMS
16
ITEM: BOX BOUNDS xy xz yz pp pp pp
0.0 17.6621420430902028 5.8867840628924038
0.0 10.1982725105519272 0.0
0.0 19.9999745150467518 0.0
ITEM: ATOMS id type x y z
1 1 -0.1207865287156443 0.1164010427809376 9.8550494422102838
2 1 2.9620261708235498 0.0511208806136436 10.2398809518390088
3 1 5.903517102083982 0.1245667995801365 10.139831079327486
4 1 8.6620745169047916 0.0011340479031734 9.7443975832083378
5 1 1.3398349239422389 2.6238768204588676 9.9533893169007684
6 1 4.3070168422980322 2.3875532713990984 10.2013230009714473
7 1 7.5045095455408708 2.6399809125802798 9.8567114400924858
8 1 10.4005229763981113 2.5511519193588708 9.9672112992881168
9 1 2.8852828693083938 4.999926440466063 9.8453794545322584
10 1 6.1206168926773987 5.2385966120305101 9.853723443899936
11 1 8.8128120280128624 5.0267397385508064 9.8421234586812094
12 1 11.6439799025465778 5.1641777778665103 10.2248249710240806
13 1 4.371275816558704 7.6514956501000838 9.9224293563514756
14 1 7.3367488821151401 7.565608858497967 10.2956248808073436
15 1 10.3766588460872527 7.5451011523064988 9.68408366006331
16 1 13.2983198270616594 7.7488453000040582 10.0158212373469393
ITEM: TIMESTEP energy, energy_weight, force_weight, nsims
8 -26032.7102646782404912 1 1 499
ITEM: NUMBER OF ATOMS
16
ITEM: BOX BOUNDS xy xz yz pp pp pp
0.0 17.7675432723709542 5.9223809700665422
0.0 10.2177842787251159 0.0698043221066126
0.0 19.9998096600350266 0.0401421953544943
ITEM: ATOMS id type x y z
1 1 0.2946896063791008 0.1445261542288997 10.0936119381986416
2 1 3.0621789305984306 0.1199289490835225 10.0815020534494924
3 1 5.853528787773243 0.1351140467010577 10.1981569432345438
4 1 8.8970650853873998 0.1419295993165813 10.1878090417164415
5 1 1.4100138272160901 2.5935915517879766 10.1722311899722406
6 1 4.4011223046599222 2.6567014586363348 9.9604652053679246
7 1 7.4963181507516614 2.6285535030468798 10.0630682288858377
8 1 10.2922805072336967 2.4654611117751246 10.2061888667940117
9 1 3.057047896767136 5.210580797784397 9.9100356853101488
10 1 5.7334896711158194 5.0551177849107374 9.9731470846733518
11 1 9.1385495996711494 5.2412219868783154 9.7555671554008666
12 1 11.8871931364143002 4.9668727149305214 10.1547673561770964
13 1 4.5095009435341336 7.6355360965060326 10.0762381035469701
14 1 7.3858137045948569 7.5678156363449336 9.7048276382933576
15 1 10.2525821465549818 7.694689761985349 10.0596002618907861
16 1 13.283204947102492 7.6673697149484604 9.8607261545933316
ITEM: TIMESTEP energy, energy_weight, force_weight, nsims
9 -26032.7667904014560912 1 1 499
ITEM: NUMBER OF ATOMS
16
ITEM: BOX BOUNDS xy xz yz pp pp pp
0.0 17.8729562770096848 5.9579778772406806
0.0 10.2368132572211135 0.1396204195712053
0.0 19.9993268703578408 0.0799664560435233
ITEM: ATOMS id type x y z
1 1 -0.0074181769338846 0.015344789197193 10.1094097413800093
2 1 3.2051775945466576 0.1825727121727439 9.9832919862028434
3 1 5.9637097676629986 -0.043917868130101 10.2916696069476395
4 1 8.9334272923411576 0.134433090779674 9.8694338183972122
5 1 1.6751033788586986 2.61790356175492 10.14061269116314
6 1 4.479777714756792 2.645300351603479 10.2525629231853444
7 1 7.267155882942622 2.5359678923427524 9.9258699188926726
8 1 10.3048111116002961 2.4979762164492484 10.16084001035982
9 1 3.0810354478067059 5.0360718552676316 9.9772281902957526
10 1 6.0768685706626373 5.0179979960590293 9.7529917375599258
11 1 9.0262594945130328 5.1258740692088081 10.2958814651865396
12 1 11.9205790784076928 4.9765433336382046 9.835674954640048
13 1 4.517410156887638 7.7343931347568714 10.2184280720830163
14 1 7.4123853148100434 7.672808017110473 10.2844498499474444
15 1 10.3710576885011872 7.5520912991898488 9.6845700404710566
16 1 13.4537326434294506 7.6335347204003244 10.2870357629117795
ITEM: TIMESTEP energy, energy_weight, force_weight, nsims
10 -26032.7971760780601472 1 1 499
ITEM: NUMBER OF ATOMS
16
ITEM: BOX BOUNDS xy xz yz pp pp pp
0.0 17.9783457309324532 5.993563009056838
0.0 10.255347670681946 0.2094247416778178
0.0 19.9985261460151876 0.1194610067091067
ITEM: ATOMS id type x y z
1 1 0.1270989094183737 0.0632269196969111 10.2640575581491351
2 1 3.0611907265139848 0.2017957562952471 10.0743735375067978
3 1 5.9887414723112364 0.1845526226710518 10.1719463465732076
4 1 8.9671397756915888 -0.069527386153668 10.2412292405534604
5 1 1.7196403833535224 2.5991678207065832 10.2163490741752021
6 1 4.7102213974773878 2.7488441249971438 10.2074697285663714
7 1 7.5670698792838388 2.7204833270614732 10.1651208495995693
8 1 10.2754194869998728 2.6142820877454152 10.3052005259893367
9 1 3.277030598529862 5.1441682523550734 9.7037268534743966
10 1 6.1660570848123593 5.1502686814950449 9.7798532431018154
11 1 9.0053522855971142 5.107557839446029 9.8237600072553928
12 1 11.9728889823298878 5.2870307357743087 10.2818642458295493
13 1 4.6226274955074294 7.7003353331801412 10.1927228153863023
14 1 7.6811929929395878 7.6531309428822496 9.728213048887577
15 1 10.3978787953038872 7.5094007602201272 10.0554829297092727
16 1 13.5212865175458604 7.5531155635535808 9.9458250112928272
ITEM: TIMESTEP energy, energy_weight, force_weight, nsims
11 -26032.3361183476808944 1 1 499
ITEM: NUMBER OF ATOMS
16
ITEM: BOX BOUNDS xy xz yz pp pp pp
-0.2792408391424106 17.519754414393649 5.7443964341958518
-0.163830555578492 10.2791456691599255 -0.2792408391424106
0.0 19.9973603855751456 -0.163830555578492
ITEM: ATOMS id type x y z
1 1 -0.1102049269218739 -0.2289702896497007 9.8701391599651362
2 1 2.6515272022125412 -0.2283714535052157 9.8910204036797538
3 1 5.7408314935128004 -0.166299796932375 9.9127255386422562
4 1 8.606559245513978 0.0370949003691211 10.0125723590474323
5 1 1.2915718288219271 2.5143442365670756 9.8630260988759862
6 1 4.2681840857069071 2.3338017065005663 10.1327364976043537
7 1 7.292650700051385 2.5267446791881558 9.9758612048515936
8 1 10.1974428760333318 2.3257872926581955 9.7304555979358512
9 1 2.8623726286102032 5.0400178296608349 9.9025328840537288
10 1 5.5978733446855156 5.005726804716323 9.8686313589920616
11 1 8.5663352983307296 5.2008544560491457 9.888622720169522
12 1 11.7835714598581288 5.2180379800558114 9.7802330274076272
13 1 4.3878710300365711 7.7409850696021616 10.1721132999395927
14 1 6.9140254604696504 7.5440506759146526 9.7401683158751276
15 1 9.9265939378704716 7.6193614268548258 9.9584115081791396
16 1 12.8503919378426358 7.5908889954203414 10.1693516644703443
ITEM: TIMESTEP energy, energy_weight, force_weight, nsims
12 -26032.9333177379921840 1 1 499
ITEM: NUMBER OF ATOMS
16
ITEM: BOX BOUNDS xy xz yz pp pp pp
0.0 18.083758735571184 6.0291599162309755
0.0 10.2733875191076081 0.2792408391424106
0.0 19.9973957116490872 0.1586376227092248
ITEM: ATOMS id type x y z
1 1 0.4150958201029884 0.2353762725246452 10.2326693853904072
2 1 3.0458583623789708 -0.0434553768091115 10.0344831954505391
3 1 5.9913015989984802 0.0352227664076427 9.695139388661282
4 1 8.7538165528210038 -0.070657544160358 10.3022963177792289
5 1 1.549746903925044 2.6972999924176176 9.7265652960221356
6 1 4.5847715343121092 2.609325468258009 10.0640073504792191
7 1 7.5697506865645696 2.6004277062813266 10.1073817017777863
8 1 10.474763284154884 2.541413529981682 9.9378437809344238
9 1 3.0515060934122795 5.2165378319090863 10.0983108830829806
10 1 5.9930395730612016 5.1599457379605021 10.0768816738383755
11 1 8.9810252372003844 5.2778404594264181 9.7445089591942048
12 1 12.0198028150820289 5.055621466077147 9.9945483962143768
13 1 4.644510920317285 7.691228124675014 9.7932466120226316
14 1 7.5859469107047532 7.5837585627331548 10.1462606385203724
15 1 10.663017082978266 7.788257530298342 10.1009925338479114
16 1 13.5739028250635824 7.6473465786316206 10.0621875874694577
ITEM: TIMESTEP energy, energy_weight, force_weight, nsims
13 -26032.4026330362248704 1 1 499
ITEM: NUMBER OF ATOMS
16
ITEM: BOX BOUNDS xy xz yz pp pp pp
-0.3490451612490232 17.4841692825774936 5.7088113023796946
-0.2056095256922338 10.298963596640597 -0.3490451612490232
0.0 19.9958766904696432 -0.2056095256922338
ITEM: ATOMS id type x y z
1 1 -0.1847145656803149 -0.1718515202515107 9.8279114061480898
2 1 2.7734434811083052 -0.1097594274177215 10.0101358300160097
3 1 5.5283764557163534 -0.1357231918770704 9.7475259822647314
4 1 8.8820126110468146 -0.005556205908245 10.3151849264551405
5 1 1.3726535138884202 2.3815697220484897 10.0585558454219797
6 1 4.0931456178554466 2.3201478533397664 9.7531588207284408
7 1 7.075646919186906 2.6126970764083084 10.2039798578287595
8 1 9.853289580677366 2.3465555636436952 9.9299263698475286
9 1 2.5540453209390798 5.0852698540316101 10.1988049249412658
10 1 5.7023731681203104 5.1638751772782756 10.0365943740528376
11 1 8.652207311421714 5.1974823495503877 10.2753131483343392
12 1 11.4386667232072927 5.0056841374850318 10.2566429982684486
13 1 3.905923858393837 7.5211825940608028 10.1205990516171696
14 1 7.1409217850866771 7.45877659785182 10.1761316003619395
15 1 9.8690161452049986 7.693827989533304 10.2050576355823761
16 1 13.0375129213507996 7.654756371735533 9.7947482446569456
ITEM: TIMESTEP energy, energy_weight, force_weight, nsims
14 -26032.2920403952848576 1 1 499
ITEM: NUMBER OF ATOMS
16
ITEM: BOX BOUNDS xy xz yz pp pp pp
-0.2792408391424106 17.519754414393649 5.7443964341958518
-0.163830555578492 10.2791456691599255 -0.2792408391424106
0.0 19.9973603855751456 -0.163830555578492
ITEM: ATOMS id type x y z
1 1 -0.1229487818698656 -0.2207774176465431 10.0596741416996167
2 1 2.8621177362463294 -0.152185925145055 9.9351105838578686
3 1 5.949894344632833 0.0137062082734842 9.9233061420222644
4 1 8.6054176469827884 -0.2105434327219755 9.737964606760638
5 1 1.2655959045532903 2.5115879183902524 9.837865420038856
6 1 4.2333874586571083 2.6061783340277192 9.7061648042754954
7 1 7.1652087434234479 2.6184324502064272 10.2250603110324754
8 1 10.1627298644558035 2.3650228661836015 9.7969448214818514
9 1 2.8303294475154592 5.0644700913631491 9.7504369604331202
10 1 5.6424087096360154 4.984263852694749 10.1858274896920165
11 1 8.6194300442612128 5.0711214297136342 10.2193490649063552
12 1 11.4103208232437599 4.9797373971399716 10.2899077512908193
13 1 4.2530938004881334 7.7411501834362522 10.1800642504288952
14 1 7.144321744055155 7.5901261336685374 10.1080157606957055
15 1 10.0355467791016864 7.48557517823338 9.7923014344003222
16 1 12.9146507006320128 7.5716207230498292 10.2550483526666856
ITEM: TIMESTEP energy, energy_weight, force_weight, nsims
15 -26032.4476632451296608 1 1 499
ITEM: NUMBER OF ATOMS
16
ITEM: BOX BOUNDS xy xz yz pp pp pp
-0.2094247416778178 17.5553513215677874 5.7799933413699902
-0.1223930708461759 10.2591746620255098 -0.2094247416778178
0.0 19.9985025952992252 -0.1223930708461759
ITEM: ATOMS id type x y z
1 1 -0.0139445734255133 0.063061606694415 9.8173649165453636
2 1 2.5596499190904548 -0.2234702743260965 10.3027065761804249
3 1 5.6558857792379484 -0.1820828370094889 10.0004892049602603
4 1 8.5083160403363376 -0.1910682814092093 10.0245354044808508
5 1 1.4203023495015417 2.5141169304579832 10.2101235084154887
6 1 4.4186700446479721 2.5653442655254288 10.0060847859864275
7 1 7.057052101188277 2.4147620366105955 9.8768604617663804
8 1 10.3659570810962727 2.6062541850350068 10.0816151305883537
9 1 2.7653868030980818 5.019857151574203 10.2400612668006481
10 1 5.6949126963131498 5.1047402557572683 10.2419511252959037
11 1 8.4778538882562522 4.961396804660808 9.6936661785924034
12 1 11.6361037957615796 4.924308030958632 9.8703169517172
13 1 4.4130553835147071 7.6596450770318382 9.8954630688805292
14 1 7.151813305762996 7.6744526879125542 9.9954495823062484
15 1 9.8802112599411984 7.4954469653316176 10.0361085379327495
16 1 13.0397451449974486 7.4755813366270348 9.9455493186304568
ITEM: TIMESTEP energy, energy_weight, force_weight, nsims
16 -26032.4461176480508592 1 1 499
ITEM: NUMBER OF ATOMS
16
ITEM: BOX BOUNDS xy xz yz pp pp pp
-0.1396204195712053 17.590948228741926 5.8155902485441278
-0.081261745421345 10.2390387998793724 -0.1396204195712053
0.0 19.9993268703578408 -0.081261745421345
ITEM: ATOMS id type x y z
1 1 -0.2368878479709646 -0.0260740495795838 9.9107144289903158
2 1 2.615898420721071 -0.1824605719155114 9.8030000543992558
3 1 5.8839918788368584 0.010751292317389 9.7772529209863582
4 1 8.7073201561383372 -0.1352510295075609 10.1466184890223072
5 1 1.4346248807464914 2.4016924495058083 10.0625933171091884
6 1 4.2618333590490139 2.5380001708960408 9.9465492228766248
7 1 7.4442738820561401 2.6760523346461588 9.9457372502056884
8 1 10.0824053763343233 2.5362954512602874 10.2542128676521483
9 1 2.7549237810703132 5.077366141103254 9.8464125932367406
10 1 5.9127395895715446 5.0486645807719412 9.901220748524958
11 1 8.6266902347567492 5.1502382841667531 9.9283398357611646
12 1 11.682004373995481 5.0425625698304692 10.2967374363765902
13 1 4.2452486586142833 7.627256928671807 9.9062645787616646
14 1 7.2580312210619509 7.6219634191058124 10.2693683575545034
15 1 10.2744033392537979 7.4981609658427822 10.2512709666695177
16 1 13.1489456883917448 7.5645307807800606 10.2408493174373767
ITEM: TIMESTEP energy, energy_weight, force_weight, nsims
17 -26032.5887331284175168 1 1 499
ITEM: NUMBER OF ATOMS
16
ITEM: BOX BOUNDS xy xz yz pp pp pp
-0.0698043221066126 17.6265451359160644 5.8511871557182662
-0.0404719053779398 10.2187380827215098 -0.0698043221066126
0.0 19.9998096600350266 -0.0404719053779398
ITEM: ATOMS id type x y z
1 1 -0.0932752894550872 -0.1741752331119124 10.2080148494159744
2 1 2.784600849270368 -0.0344799434902134 10.1064998155435699
3 1 5.9078556921350636 -0.044441264263795 10.1772431422730438
4 1 8.6347609721758314 -0.1641949886009191 10.3102158767597203
5 1 1.4681518211471694 2.393437464411043 10.1340655531979955
6 1 4.4210087075817608 2.4635512486635074 10.2911340583630793
7 1 7.469600291375775 2.4989805153261338 9.7624850895622722
8 1 10.2740555667838383 2.5320816733719168 9.9772970451778118
9 1 2.82519401489439 5.0766735223727606 10.2760562018603796
10 1 5.9721009010269838 5.1120047338302115 9.9165516232973836
11 1 8.8151406842015164 4.9409757605823348 10.1821670954113461
12 1 11.8242378219492964 4.9620746694812468 9.8017827155632756
13 1 4.3240769055327055 7.6974808056834362 9.9855109670051884
14 1 7.3123343433726591 7.5340856207346576 9.9772370457488294
15 1 10.2656284150714399 7.640183985425848 9.9084257006325114
16 1 13.145867692465778 7.5498119243839454 10.0551683040701221
ITEM: TIMESTEP energy, energy_weight, force_weight, nsims
18 -26032.7577330121093840 1 1 499
ITEM: NUMBER OF ATOMS
16
ITEM: BOX BOUNDS xy xz yz pp pp pp
0.0 17.6621420430902028 5.8867840628924038
0.0 10.1982725105519272 0.0
0.0 19.9999745150467518 0.0
ITEM: ATOMS id type x y z
1 1 -0.1006167466664241 -0.0353094789132839 9.9527373177315806
2 1 2.9525886616689264 -0.1551779343478092 10.0690631695034441
3 1 5.7810021195906964 -0.0024934776288299 9.9961412624241336
4 1 8.8028384212122878 0.1006640884699049 10.2418029493899035
5 1 1.6515196785792058 2.7126894964442596 10.1694430415944641
6 1 4.4190553910629662 2.4195166971016704 9.8685994249442288
7 1 7.1846704334319354 2.4496393346160877 10.0098972448955816
8 1 10.2782575562023677 2.5926843841580932 10.0994231308172857
9 1 2.8344286347982256 5.1676156155298179 10.2775929037845799
10 1 5.8732967471158046 5.2245719476739989 10.2923688849562965
11 1 8.8647855944787288 5.160013823200452 9.8387114630289432
12 1 11.7626885331857968 5.1097128836966563 9.9660313007917302
13 1 4.5143126893816198 7.5997220800457638 9.8158254921913742
14 1 7.1308233535520191 7.5368854239719988 9.9641033032484784
15 1 10.2045391428219663 7.5035278944172338 10.0178652347423753
16 1 13.3091108950581436 7.4924076980717276 9.7396215892941438
ITEM: TIMESTEP energy, energy_weight, force_weight, nsims
19 -26032.6859574430927744 1 1 499
ITEM: NUMBER OF ATOMS
16
ITEM: BOX BOUNDS xy xz yz pp pp pp
0.0 17.7675432723709542 5.9223809700665422
0.0 10.2177842787251159 0.0698043221066126
0.0 19.9998096600350266 0.0401421953544943
ITEM: ATOMS id type x y z
1 1 -0.1483888415280618 -0.0085461090022643 10.3179838028316766
2 1 2.9076141466792346 0.103159823413664 9.9377794212705482
3 1 5.93177168547935 -0.0194999446539934 10.180239113760118
4 1 8.7935507895217332 -0.0625747655922704 9.7796569261363794
5 1 1.5098398018192552 2.4884075942202882 9.8786039844484358
6 1 4.2326554690372271 2.482830127312087 10.1675772342643498
7 1 7.607734132885292 2.6308856563684838 9.9360194380204642
8 1 10.4138401593133043 2.6758824763872756 10.0477983742103998
9 1 2.7288190537181558 4.9629342979349866 9.9338474586913836
10 1 5.9108566088791896 5.2074610820524283 9.76792103782787
11 1 8.9268571270323208 5.2043679832183516 9.8667440973200354
12 1 11.9397564153960368 5.0171582647738635 9.847408281340714
13 1 4.4280072544461646 7.6374958637025224 10.2134327978528781
14 1 7.4212815109855832 7.741806189136848 9.9744370723964248
15 1 10.2380190606067263 7.5475892651446426 9.8892318833017808
16 1 13.2916660287541113 7.6648684892176836 9.9912629122634122
ITEM: TIMESTEP energy, energy_weight, force_weight, nsims
20 -26032.6712008005852112 1 1 499
ITEM: NUMBER OF ATOMS
16
ITEM: BOX BOUNDS xy xz yz pp pp pp
0.0 17.8729562770096848 5.9579778772406806
0.0 10.2368132572211135 0.1396204195712053
0.0 19.9993268703578408 0.0799664560435233
ITEM: ATOMS id type x y z
1 1 -0.1163404011698572 -0.0566334056666061 9.6977275976190676
2 1 3.0064089682000108 -0.033319556288502 10.1033519452709761
3 1 6.1043183194088915 0.0889258022098342 10.0537136159787472
4 1 8.8025386515967412 0.1610662058951173 9.889205152941246
5 1 1.6192825619615342 2.4640494014488938 9.8387688505068898
6 1 4.7388435866287956 2.7104193277345102 9.9948295978743556
7 1 7.5286197671587924 2.547061243171791 9.8461186031317478
8 1 10.2744540482856604 2.6787136190580872 9.7189408836304558
9 1 2.9183152954504252 5.0274214713832253 10.2465391259319923
10 1 6.1155936457476035 5.0906610329890656 9.9658445734411458
11 1 9.0647542771474363 5.029200656892086 10.2789800340484004
12 1 11.7999226669114084 5.2450082874420341 10.2327555898529408
13 1 4.6773650127416904 7.7698744391344744 10.2561208034355804
14 1 7.5583878563655276 7.5823468368975986 10.0090331198176816
15 1 10.1847491361540126 7.5418330405482292 10.0775768128004604
16 1 13.4266184114371097 7.510916198525532 10.0045692700602196
ITEM: TIMESTEP energy, energy_weight, force_weight, nsims
21 -26032.7566200733708688 1 1 499
ITEM: NUMBER OF ATOMS
16
ITEM: BOX BOUNDS xy xz yz pp pp pp
0.0 17.9783457309324532 5.993563009056838
0.0 10.255347670681946 0.2094247416778178
0.0 19.9985261460151876 0.1194610067091067
ITEM: ATOMS id type x y z
1 1 -8.4163349651160786e-04 0.1293764783836395 9.9512886086359184
2 1 2.8402065507580244 -0.0491884244335395 10.2361876121120528
3 1 6.1075315449907377 0.2065771251387099 9.8979505395518804
4 1 9.1683192869988517 0.1528056444170811 10.055822904653752
5 1 1.7765403252677562 2.5895586419133082 9.7632404674323238
6 1 4.4164316376089472 2.6335406632876164 9.8873413214314194
7 1 7.5539671477798498 2.6940262745115038 10.1659087915297235
8 1 10.6181126161430158 2.6882003389009204 10.2007222258447037
9 1 3.1090310512004828 5.044841777273211 10.0130800547218755
10 1 6.0037406258008152 4.9915379775931238 10.0257751191193663
11 1 9.0739473074866126 5.0668495281295591 9.8234960267102664
12 1 12.0663238504754524 5.0560131173885505 9.8852374764808602
13 1 4.7863332230429646 7.7036501684202002 10.0438097899978445
14 1 7.4079865561828538 7.6983635579292882 10.0509812614738046
15 1 10.4988875124410158 7.707850742078021 10.1933427696968284
16 1 13.5527057104292048 7.657767063287924 10.1227159747595597
ITEM: TIMESTEP energy, energy_weight, force_weight, nsims
22 -26032.3213402083056288 1 1 499
ITEM: NUMBER OF ATOMS
16
ITEM: BOX BOUNDS xy xz yz pp pp pp
-0.2094247416778178 17.5553513215677874 5.7799933413699902
-0.1223930708461759 10.2591746620255098 -0.2094247416778178
0.0 19.9985025952992252 -0.1223930708461759
ITEM: ATOMS id type x y z
1 1 -0.1998818268922842 -0.1151748623597178 10.0178059083575324
2 1 2.7125394108401388 0.039949527546588 10.2534062675824913
3 1 5.8485528786268218 -0.0681323367508276 9.887539662152273
4 1 8.8622664293763016 -0.0264343624219167 9.999421284921672
5 1 1.3431387101590131 2.3472258736594003 10.1702164964865656
6 1 4.0849633379363386 2.3536902134975351 9.7355450428772184
7 1 7.0002929593489762 2.3514871204320929 9.8226185231771518
8 1 10.2213124402209044 2.4382855207097381 10.0541771850275996
9 1 2.7939301926831432 5.1516793167004771 10.2868337646705364
10 1 5.864124637902072 5.0075103567445876 9.7648088517249204
11 1 8.82933683055046 5.2079216611777453 10.2644534404161352
12 1 11.5349806249168036 5.2030620240249865 9.8746906242347912