ITEM: TIMESTEP energy, energy_weight, force_weight, nsims
0 -86321.4585985624119062 1 1 362
ITEM: NUMBER OF ATOMS
53
ITEM: BOX BOUNDS xy xz yz pp pp pp
-1.0985951770506095 8.8052448347355004 -0.4452724260477396
0.0 9.7442889753807016 -0.65332275100287
0.0 13.9183360420835526 1.0782726719720399
ITEM: ATOMS id type x y z
1 1 0.8138495376463906 2.1001714339487747 1.2793706653211121
2 1 1.6690106128155172 1.3179528026199836 3.530182729368279
3 1 0.5418679162352948 2.4750877343187252 5.899786399701025
4 1 1.5684464399378522 1.540178786847186 8.1229984033767409
5 1 0.3820864229921168 2.8327074841455122 10.5636370853674678
6 1 1.3217558936221403 1.9390055147231704 12.8472101287904898
7 1 0.6567828265989846 4.9127866365162606 1.0225133409988767
8 1 1.6119988050125804 4.1189246700551028 3.5924686749902076
9 1 0.4139569519081022 5.2995329812899987 5.9452339423792404
10 1 1.2827728682985025 4.5218506645857968 8.1016309738849337
11 1 0.2365253420221687 5.6479024614929472 10.3173493454355914
12 1 1.0820018633464421 4.9077257922663984 12.8664786732071512
13 1 0.6257749423604652 7.7197357852491182 1.0520842377538877
14 1 1.526863930313351 6.9549136624851408 3.5768592611190102
15 1 0.3083908210960648 8.1956655968150258 5.7532277130114898
16 1 1.1916114342234203 7.3364035116222741 7.9851804317216332
17 1 0.0090020924905926 8.4255493690332753 10.5148254808678808
18 1 0.9496628952001168 7.779880650813464 12.7936969103758874
19 1 3.7844918992615142 2.0995759994871897 1.2359899955451461
20 1 4.7295879446162906 1.272735368242413 3.554111132691829
21 1 3.6145648086663682 2.4744940427003836 5.9466104658138024
22 1 4.3793890365979662 1.6791457229738406 8.0706195293495675
23 1 3.2746098184143029 2.7406983775503938 10.565020567970052
24 1 4.1481865617053906 1.8868092753271618 12.8952325636364922
25 1 3.5492775464091332 4.8905640981211836 1.0211563032347737
26 1 4.5115478119299128 4.1777003257587282 3.3643972532702091
27 1 3.4133004424641227 5.2366464091507235 5.6630327199579754
28 1 4.3024964521107094 4.4843276455857756 8.0275450629665261
29 1 3.0976819496441896 5.5880186784240334 10.4841466845639194
30 1 4.1502423317116524 4.8274713566509666 12.6674756963110458
31 1 3.3800467225021791 7.7582838094938644 1.2932208015165889
32 1 4.465014515088984 7.0014886312787237 3.3860848044909839
33 1 3.1627137539753818 8.1962610472369981 5.8628749725174202
34 1 4.2592975613109578 7.3993066099487148 8.0473856509945172
35 1 3.0568027143214795 8.4478361868585648 10.3119824350577645
36 1 3.9304388465023772 7.7094830075239936 12.6184316555995562
37 1 6.7267121482133324 1.9534521537866272 1.0518100465338582
38 1 7.5227818064268598 1.3139619567359105 3.5151467509420158
39 1 6.4547239601253628 2.4139362096528752 5.660876769705057
40 1 7.4742701230712224 1.6683107473401102 8.2040490496506067
41 1 6.2240577443555241 2.7574778523845206 10.5634812000037962
42 1 7.1017573479196354 1.9807172631024388 12.6566277451998436
43 1 6.6174613697863754 4.9878860466766542 1.1953011319597189
44 1 7.4797297330678792 4.0684485936004835 3.5373548479307648
45 1 6.3654049327208169 5.1724676355485393 5.6784472771245832
46 1 7.2839039906927017 4.5429672622220352 8.1633796717356368
47 1 6.1277522229092218 5.7127186508807678 10.373005987600676
48 1 7.1166497356689851 4.8993824746102552 12.7641413237905238
49 1 6.4015568517060109 7.8291439402872056 1.0241598801526552
50 1 7.2613791500930782 7.0787982445080688 3.4942553285428484
51 1 6.2061287974996882 8.0716430102532009 5.7262163982546178
52 1 7.0989718911596738 7.3285760807135248 8.1912692334967652
53 1 5.926118503119505 8.4761007482410982 10.3758035731451344
ITEM: TIMESTEP energy, energy_weight, force_weight, nsims
1 -86318.1603002520198578 1 1 362
ITEM: NUMBER OF ATOMS
53
ITEM: BOX BOUNDS xy xz yz pp pp pp
0.0 9.6731711015660622 0.0906940286770799
-0.1895195556205066 8.8764099237551672 0.6073134234995832
0.0 13.8552024549809492 -0.1895195556205066
ITEM: ATOMS id type x y z
1 1 0.963795074939358 1.9838583823930344 1.0067896719114362
2 1 2.0892843754038903 0.96873944121997 3.4592367100565662
3 1 1.3288847507528885 1.9565010826516224 5.9067914762148436
4 1 2.4558105757499772 0.8897733705256078 8.117739564529165
5 1 1.5131075420953274 1.7888067703249336 10.5241914870844956
6 1 2.4733370262062718 0.8680578115336952 12.8105465147600502
7 1 1.1570850277540641 4.8858985246507256 1.1908906745319956
8 1 2.2486620752554996 3.8257138998602422 3.6020769197661928
9 1 1.3092407257150087 4.8599584752097212 5.9102538913083426
10 1 2.3200405867818086 3.8081424915293698 8.1223519614264284
11 1 1.4309426794758753 4.7775995724349914 10.3986924487675232
12 1 2.5731418177984566 3.795614081847965 12.7249532305539166
13 1 1.2087171991153798 7.7900373541942098 1.0989156840750956
14 1 2.2387571554633819 6.784896421598913 3.4074279515166564
15 1 1.2283293463492049 7.8041415469369602 5.679077067306495
16 1 2.480482425205329 6.749114916605084 8.1269989963298297
17 1 1.485377286110474 7.8405852138969038 10.4173664906363488
18 1 2.5848402107681938 6.8116962282658148 12.6245889150105236
19 1 3.975221747495155 1.9087252246431528 1.0257144929446946
20 1 5.2143062507851266 1.0262556296872538 3.398193459080412
21 1 4.3438942034898887 1.862996135070525 5.7234663649317632
22 1 5.4337521790276622 0.8101793613910308 8.0934791050304931
23 1 4.4752780195031994 1.7963895527071566 10.4463446465709407
24 1 5.5694842600306256 0.8933019744398544 12.7543747529670686
25 1 4.168510218284168 4.8698836281216238 1.1461203588392157
26 1 5.1482743764130179 3.842074995617327 3.4909734367999464
27 1 4.3673108422059439 4.845701876208386 5.7101390456903164
28 1 5.3892051114684403 3.7395098447085698 8.2052379390728589
29 1 4.5128089827244794 4.8264178618048376 10.3130479003123039
30 1 5.5597272601619192 3.7307132976003602 12.7354028242454618
31 1 4.0965837964853211 7.9572665729365566 1.0914297181886692
32 1 5.1507211017672976 6.8485403534196508 3.4713420004414838
33 1 4.3425866616974025 7.8897902747121372 5.8908039581020414
34 1 5.4737946509752692 6.7648047333350654 8.0499155774715412
35 1 4.4713693126048932 7.726657386118827 10.50925419331778
36 1 5.624778011313766 6.7844819479976898 12.773330055445726
37 1 7.0893397052700404 1.8673158409655872 1.0298059342296506
38 1 8.1359475930451595 0.8545466913186912 3.5041067832070226
39 1 7.2621991595669213 1.9242397625822296 5.7768767848754692
40 1 8.3365157293804853 0.7939215336461076 7.9471958775108042
41 1 7.5580793538845166 1.861423061600315 10.4911496002698552
42 1 8.6297465375061418 0.8024222862347662 12.6024857105340918
43 1 7.0764103101990159 4.9619324060402752 1.0142285301095155
44 1 8.0702493687195176 3.8206484985560946 3.3635693081454146
45 1 7.2302893038122989 4.8134649080286902 5.8679955238206514
46 1 8.3183558539332285 3.7689906677574672 8.0037749822559654
47 1 7.387804477336303 4.7477793086268686 10.2928497861734325
48 1 8.4862701699902844 3.695264566447261 12.5774465886574518
49 1 7.1190184296353918 7.9484484353066076 1.0567349057211517
50 1 8.190462025245683 6.866173262716747 3.5209907329186626
51 1 7.4057941699317152 7.7297257592229132 5.7740447814936706
52 1 8.4404770294378118 6.7677243292000346 7.9604178972135938
53 1 7.5389878404890204 7.672375473791714 10.5168468442631086
ITEM: TIMESTEP energy, energy_weight, force_weight, nsims
2 -86321.0272586093331102 1 1 362
ITEM: NUMBER OF ATOMS
53
ITEM: BOX BOUNDS xy xz yz pp pp pp
-0.2727310367296011 9.1044976389080556 -0.2727310367296011
-0.1010304429075307 8.7464631786269678 0.2839595816764569
0.0 14.0563300631617594 -0.1010304429075307
ITEM: ATOMS id type x y z
1 1 0.9382584960727204 1.9639567139613216 1.1357767704975841
2 1 2.0700176028854149 0.8932056560192796 3.4226011084733705
3 1 1.1024101177186916 1.8329558866147356 5.7394961533532786
4 1 2.106131071906181 0.9744556897007056 8.2928805177478466
5 1 1.0603968701740476 1.814608918741219 10.4950435797532098
6 1 2.1982799426799868 0.871639697427499 12.8629813759914776
7 1 0.9343961832711204 4.8139641128335642 1.2593628356789146
8 1 1.8798446095231146 3.8396907694122366 3.619829692488613
9 1 0.8604307543120906 4.8057867402527794 5.940546653512695
10 1 2.0461172794667508 3.8234120656682338 8.1101327649636748
11 1 0.9489367966620752 4.7090284118827928 10.4863286551140488
12 1 2.1043899444945766 3.712869675498757 12.8001875327003152
13 1 0.768955529726475 7.7072630911987368 1.168155526798077
14 1 1.7527588414816998 6.7864692970157678 3.623028913210988
15 1 0.8962475050995584 7.6628979622565172 5.9310122448308516
16 1 1.9189200695042088 6.7399821495246366 8.1736772162802094
17 1 1.017619867994273 7.742528121817732 10.6899500580420154
18 1 2.0230083533841934 6.7737305069008454 12.8277857311463262
19 1 3.8354709027250232 1.849924602012707 1.1345735486441773
20 1 5.0212882080481194 0.9457430821993924 3.4494880566181867
21 1 3.9378557027439172 1.9816570522402544 5.9159565097001998
22 1 5.0747750107501029 0.9040516302016834 8.1510296572824448
23 1 3.992431421436796 1.807253192474226 10.6055305509486804
24 1 5.1067126165464156 0.7945911077428334 12.9905285149846072
25 1 3.8665954066363 4.8787538205290036 1.2775770281747598
26 1 4.81549446560273 3.8470825878549856 3.6257670863072922
27 1 3.8438427666378416 4.8013777385678936 5.8884510830326048
28 1 5.0148706535585088 3.7668947315642192 8.189882759210029
29 1 3.910048373080476 4.807582582164951 10.5515682998362018
30 1 5.0066686334456865 3.7145665869405504 12.8096657160619056
31 1 3.696589758802872 7.7319837029096874 1.3002428604016081
32 1 4.7916174875797638 6.842482698669227 3.553398070977103
33 1 3.783585929393448 7.6782324346978434 5.807108506590093
34 1 4.8330850881627674 6.710035462329012 8.3488640691234064
35 1 3.9661348333983498 7.6531545293547838 10.6862448094373672
36 1 4.8749315989481198 6.7930877265448252 12.78708281618243
37 1 6.7810523537149044 2.0125854115675255 1.2339644528877878
38 1 7.8191079860081026 1.0291442376062911 3.5944017914043518
39 1 6.8958673465681422 1.9657810080625904 5.7180152697507562
40 1 7.897318866563487 0.9222750600924502 8.1890941990934838
41 1 6.9180904726883706 1.8519591520029298 10.6123225696352002
42 1 8.0154455445334687 0.9217877148507068 12.7906742085135684
43 1 6.7008363704412224 4.9316430304033698 1.3177036336060677
44 1 7.8792366336734424 3.850393761474904 3.5260149343810574
45 1 6.8935688189170242 4.8002987528022496 5.983079702650815
46 1 7.9598068275453872 3.7621793027042658 8.0677360622271657
47 1 6.972982480818441 4.8318280008658504 10.4794972787033522
48 1 8.0478341801761779 3.8578913501595982 12.8407006872083596
49 1 6.6945470224131762 7.83339642432549 1.0928698229797824
50 1 7.7079270508519722 6.850773080849777 3.485306396885135
51 1 6.6730189826988298 7.783365375704638 5.7649409220336142
52 1 7.7173294532717788 6.8177290763909664 8.3086840496378596
53 1 6.7904541420197432 7.7640216445086044 10.5212937761461642
ITEM: TIMESTEP energy, energy_weight, force_weight, nsims
3 -86320.8015438844731794 1 1 362
ITEM: NUMBER OF ATOMS
53
ITEM: BOX BOUNDS xy xz yz pp pp pp
-1.1418109572714299 8.891500726322498 -0.7551551566865698
-0.5551230648464926 8.9279292047982412 -0.3866558005848601
0.0 13.8096831975754402 -0.5551230648464926
ITEM: ATOMS id type x y z
1 1 0.8446133339088048 1.8554994373329504 1.0678738013337941
2 1 1.7449728530368388 0.8272223863757506 3.4587870633479422
3 1 0.6564281370422918 1.720914579338063 5.6612188642399826
4 1 1.6019714257863412 0.6336497711692182 8.0994399579840657
5 1 0.5341696307178344 1.5244564123726426 10.2496131557198407
6 1 1.5402520554683572 0.4338381191596602 12.7442288527378622
7 1 0.4879026237858408 4.9074546091723646 1.2228833523216189
8 1 1.4830238304605362 3.75989169945492 3.511226573354096
9 1 0.4917323666218472 4.7488234548325484 5.6255967864318368
10 1 1.3797396271689711 3.5980817844567858 8.0554492121581891
11 1 0.2209746953312856 4.547548916442847 10.3466220372778484
12 1 1.3031042131860029 3.5498872653545148 12.7242379553410512
13 1 0.3232452516669425 7.878577226738159 1.0349059446362221
14 1 1.2928144647441795 6.894303291939231 3.5839746034706034
15 1 0.169447877734551 7.648099894346065 5.7149647702766276
16 1 1.1295649380560668 6.6954051440406372 8.1354556117633425
17 1 -0.0661536193026682 7.5899648847210992 10.3460889835064247
18 1 1.0260721544710003 6.5335906383526742 12.5988598415902634
19 1 3.7481423810444672 1.8637189466666704 1.003009719354782
20 1 4.7315992060273678 0.8484202487956504 3.5424889341767668
21 1 3.531043919030442 1.8240978157364006 5.833066561950611
22 1 4.6556726679232058 0.617805157622881 8.1338039736529115
23 1 3.4041796395146311 1.6365937979017608 10.4895702109609116
24 1 4.4947548223957066 0.5728206016698516 12.776753418604793
25 1 3.5037212725776312 4.8793341335520176 1.014937142732528
26 1 4.4396476388411657 3.8431991949524722 3.474933344942548
27 1 3.3089131338879816 4.7368034517506086 5.624805491584616
28 1 4.3330365687849053 3.7215336830493988 8.1992784436292574
29 1 3.168107703959373 4.5872069859116432 10.2440740917892939
30 1 4.2092253861520357 3.4439458062476125 12.7246370551854646
31 1 3.2348227634571818 7.8360495124497334 1.0554381816143774
32 1 4.2637338244110126 6.7462163975272614 3.3776731271503438
33 1 3.118911539217637 7.758685506254154 5.7307160949317808
34 1 4.074706129997165 6.6316184202639744 7.9473221546578116
35 1 2.9422959844873868 7.5351066203823224 10.4091799021628688
36 1 4.1018711127663279 6.3654645983685479 12.6127123348057514
37 1 6.759600252179216 1.842087525973689 1.1647846341410997
38 1 7.7485184578335646 0.799063800851461 3.461160947889606
39 1 6.6507569870979354 1.6629273352145346 5.888389533808418
40 1 7.6801152758655454 0.6482364370818916 8.1490291493782383
41 1 6.5489551567221502 1.4970076930616208 10.3522398164026246
42 1 7.4835808719423138 0.4137295470791196 12.5785706550363888
43 1 6.5400494415964134 4.889954651218889 1.1955733228300938
44 1 7.5673600672368444 3.7446030459552896 3.3128822364922788
45 1 6.2944306683201603 4.7802417078158258 5.8443863592676638
46 1 7.3170629732596311 3.6085091162695352 8.0034681836341957
47 1 6.1167951994028096 4.5346407375913592 10.2701136304266392
48 1 7.1203746178240719 3.5502464757962628 12.6779672308192542
49 1 6.123931682099327 7.9406104799849206 1.1561218198712604
50 1 7.2434495286249234 6.7176309515133346 3.485501895493652
51 1 6.1138696058667232 7.7738833735017404 5.7844675248417038
52 1 7.0100366708922088 6.5977366020517448 8.1276296642952755
53 1 5.9143493573791658 7.5797849126944828 10.4010225222980584
ITEM: TIMESTEP energy, energy_weight, force_weight, nsims
4 -86317.639113217085198 1 1 362
ITEM: NUMBER OF ATOMS
53
ITEM: BOX BOUNDS xy xz yz pp pp pp
0.0 9.7068662971578236 0.4194559255630913
0.0 9.1054656346974223 0.4392492619653323
0.0 13.791177465362754 0.0932507699343843
ITEM: ATOMS id type x y z
1 1 1.0709000058221174 1.9848116213882268 1.2337090878124768
2 1 2.0483962726301175 0.9410787552834204 3.4736445493817644
3 1 1.2288331753195416 2.1007774004730089 5.681584479231411
4 1 2.3281755737982848 1.1197822173392769 8.1059934888128833
5 1 1.4325741201693532 2.0090753526625278 10.2521765259726365
6 1 2.477548856754444 1.1163644405302702 12.749449842574606
7 1 1.2442058014527702 4.9397517290153364 1.0542748360461351
8 1 2.3415362530692661 4.0774787637536347 3.4385363489081904
9 1 1.4180401391134241 5.1404058416319387 5.6925622564938392
10 1 2.3163056729312559 4.0155466798017194 8.0428367916102541
11 1 1.5786471597798206 5.115652268171373 10.1993604536335365
12 1 2.4785156749132642 4.1710659004638391 12.5534496284368728
13 1 1.4545058375473284 8.0094393062453726 1.3002032499617231
14 1 2.3381185074181739 7.1028814720533013 3.5569487777435418
15 1 1.5975401584711528 8.0483907262016103 5.7532062011622784
16 1 2.5417000311941136 7.0482213419885156 8.0534215203149202
17 1 1.6029206799614538 8.0994744083545403 10.2572599539863685
18 1 2.6038890567301444 7.0038761482865377 12.5578255690466314
19 1 4.101223715021014 1.9571495916680208 1.2155916179762298
20 1 5.0906925857078571 0.9960883486969556 3.4207209058584352
21 1 4.1957939544863834 1.957914374904815 5.8879694500005648
22 1 5.1290929767475673 1.019290845508747 8.0045979938520446
23 1 4.2741164244854329 2.0893291545782953 10.2116621839326385
24 1 5.2657731794009184 0.9888176490269324 12.6203533885568398
25 1 4.19223532943872 4.979828402410286 1.1137575635719912
26 1 5.2553964872578281 4.0779744663919955 3.4281446966880394
27 1 4.3992815699271386 4.983337352264921 5.8331771019306782
28 1 5.3453507783453303 4.1072643472019923 7.9442588342055886
29 1 4.5008029337942058 5.1644935967397743 10.4753384641284022
30 1 5.5139556731433236 3.9935455309787274 12.7077246351531504
31 1 4.3644531045262651 8.0988096885806442 1.0374771818933233
32 1 5.4270746293197299 6.9733305746891902 3.4765324219430114
33 1 4.39340832652098 8.0178893897864914 5.8133922787388688
34 1 5.571801279324716 7.0270520666999987 8.1051977378731319
35 1 4.6265438332361804 8.027325827993451 10.3994166530638364
36 1 5.7214422881692136 6.998072815718765 12.5880268685780284
37 1 7.0918083390504894 1.9277326379276568 1.0418944960354788
38 1 7.9796277377032796 0.9491566381703748 3.536056523001264
39 1 7.10847927964896 1.9663368247468924 5.6899874436610568
40 1 8.1905291109234231 1.007151076777266 8.1161106966014742
41 1 7.3643953353967504 2.0289628274716081 10.4686635342351676
42 1 8.4064420916397644 1.0555747528496475 12.733915460277622
43 1 7.1286260843077214 5.0504259435857151 1.2212377260305492
44 1 8.2498862115340632 4.1058297590681718 3.5796063032013864
45 1 7.2970965953618796 5.01183891282529 5.736476123779048
46 1 8.246083990687211 4.1403461124980874 8.0856335735207701
47 1 7.3867216584221467 5.0974657893305189 10.48141623603739
48 1 8.422589423299609 4.1798114523326957 12.6816841338630564
49 1 7.2946719401666887 8.051062685831937 1.2157695241655326
50 1 8.2565789840529789 7.0687838720412355 3.4812600375781378
51 1 7.4969051168159942 8.1432129888786395 5.7930944237453472
52 1 8.4087412895434142 7.1300501200024957 7.9811323053947288
53 1 7.487196598639712 8.1723268079038256 10.1985343621033593
ITEM: TIMESTEP energy, energy_weight, force_weight, nsims
5 -86318.0913622686355208 1 1 362
ITEM: NUMBER OF ATOMS
53
ITEM: BOX BOUNDS xy xz yz pp pp pp
-0.6951026023554846 9.602356729530765 0.6191495859565646
0.0 9.8663462378589806 -0.6951026023554846
0.0 13.7271849368528738 1.2222371975404185
ITEM: ATOMS id type x y z
1 1 1.0823363887679758 2.0380415304874151 1.0154959600735651
2 1 1.9589880646104032 1.3051260408632961 3.4786100530033678
3 1 0.9376830392951188 2.4916579848403844 5.8170360069962542
4 1 1.707657036954435 1.6316256968455982 8.0602556971411055
5 1 0.5297178696687526 2.9148741348204918 10.3415010622795318
6 1 1.468421477392129 2.1013602310017787 12.6854851534533514
7 1 1.2598586966403176 4.9788007324228704 1.2044259517964586
8 1 2.0499248821936642 4.1784295741224238 3.4657751350874104
9 1 1.0382136037572285 5.2575207257671748 5.8278928375628124
10 1 1.9562381427802224 4.5219731448113444 8.0206390414133466
11 1 0.9066983737743532 5.7281606328326148 10.344897167832908
12 1 1.6183521185087918 5.0072600010345418 12.6563711669207778
13 1 1.4788551495942976 7.7413304152588198 1.0498825583403817
14 1 2.214498262115252 6.952705130390136 3.3381850692548443
15 1 1.2387961700779797 8.1674749200113386 5.6319249181227944
16 1 2.0390840176940652 7.4665479296346398 7.9792776604801156
17 1 1.0163498240599924 8.663734226041802 10.3732506683199795
18 1 1.7705620987249036 7.8297739359378902 12.575545502012588
19 1 4.0314452087437189 2.0657696405461152 1.1390200337278356
20 1 4.879547852397299 1.3350671907124838 3.455743308335558
21 1 3.899695124302292 2.4492062253106961 5.7999140892245188
22 1 4.663938496012241 1.7764312578503652 8.1315574411401066
23 1 3.5834650427680886 2.8462825930509412 10.3344370529110279
24 1 4.4772214912406102 1.9822262986848316 12.5228413481660362
25 1 4.2874596632598143 4.84907646553856 1.2444297141394352
26 1 5.0400534844742655 4.2202209623438325 3.4263753688816552
27 1 4.0713039244862435 5.2579946173391852 5.6198738224667314
28 1 4.7990800704792322 4.5229356046670972 7.870920753462574
29 1 3.898413867760807 5.6859703664893814 10.343663093907086
30 1 4.5830182099501392 4.9440815633445352 12.6983653710795998
31 1 4.4136882826300008 7.8352407127487292 1.2408345644044734
32 1 5.3473966309930408 7.0488559861212154 3.4843233073740866
33 1 4.2701061658037905 8.1755443193680826 5.8522091729599532
34 1 5.1194520755657882 7.5254053038462728 7.9798075298186788
35 1 3.9489359390374542 8.5396490321224282 10.2833623159164756
36 1 4.802061782272613 7.7678952813551324 12.6244293802912164
37 1 7.0983899498137708 1.9339611090045136 0.9959511941604738
38 1 7.9399060078391618 1.3168233150994966 3.3044038398437432
39 1 6.8141456384529128 2.4446321023394497 5.5773826942131964
40 1 7.6186816141806962 1.5815916777368986 7.8949103818582184
41 1 6.670162987933936 2.8450347653948036 10.3538774922185955
42 1 7.3246368066245813 2.1065854766311691 12.5963998413686564
43 1 7.2771927815724942 4.8777581761063296 1.2275919490958913
44 1 8.152512451737687 4.2158353660835193 3.3438104696419666
45 1 7.102913154001401 5.3128392299072402 5.743202970094898
46 1 7.8835686656422484 4.5986895694553196 7.8889445472846608
47 1 6.8348570247359676 5.6733498624493014 10.1890949915181217
48 1 7.5467113755810812 4.9718278340398508 12.7058357051222366
49 1 7.551534457655806 7.8246368622473224 1.1934757763723312
50 1 8.3575088423017636 6.9433902377408856 3.2827794054127186
51 1 7.2204171039465033 8.1824883754918965 5.8123687641177258
52 1 8.1625213576263072 7.4854458783629028 7.9410968682967526
53 1 7.0264400461597019 8.6762333566208856 10.1933517915670393
ITEM: TIMESTEP energy, energy_weight, force_weight, nsims
6 -86323.1425084815782656 1 1 362
ITEM: NUMBER OF ATOMS
53
ITEM: BOX BOUNDS xy xz yz pp pp pp
-1.988246810917519 8.7169780696023 -0.6211631402617904
-0.5920309995531796 8.7421439852892426 -1.3670836706557288
0.0 13.707352127690852 -0.5920309995531796
ITEM: ATOMS id type x y z
1 1 0.7914983251397256 1.8073315736647678 1.0843598413821551
2 1 1.53710662148077 0.8625850924736402 3.5141538649761036
3 1 0.2951279086208132 1.752260569607101 5.6160227914136654
4 1 1.0134586049507419 0.560747952698982 8.0342162829019497
5 1 -0.1714831213506465 1.5768281274479632 10.3848983236909316
6 1 0.5268409126595208 0.5075567252718808 12.4479110190521265
7 1 0.4563292249208772 4.7226434000221538 1.2141232317693662
8 1 1.36120032749527 3.7755700214894472 3.459173675591936
9 1 0.0438648644655067 4.566351818259098 5.8310527657111768
10 1 0.9603994335349068 3.6262168187367458 7.8482993537884402
11 1 -0.3957989669460466 4.4448881089509431 10.1783134490392886
12 1 0.4454549551226298 3.3097567961843906 12.575523725890502
13 1 0.3582788777392904 7.6853393773030608 1.277638989323447
14 1 1.0704985563156877 6.6915632762691342 3.4704986899198338
15 1 -0.2089769323021403 7.4543322755919608 5.8314557618637322
16 1 0.580148206497072 6.4622343387351108 7.944493438814935
17 1 -0.6875670364672252 7.3187868762666781 10.2367026568976165
18 1 0.129108500609383 6.251644716083133 12.6859172569860768
19 1 3.657375394455039 1.9816306294337384 1.2497486399492344
20 1 4.3829604912357168 0.8072945100632184 3.4707783199032384
21 1 3.0546321542443513 1.7752975033699312 5.8406835513160926
22 1 3.945710840071893 0.6567881627746548 8.1194527106375691
23 1 2.6523586371951998 1.5400012738931146 10.4178028224734512
24 1 3.6076303378388182 0.3455783561282055 12.6585464162575008
25 1 3.4467350925207878 4.8800249998260954 1.1673605999857488
26 1 4.1220894236086414 3.7224065590217532 3.5702923256150618
27 1 2.8924598361026188 4.5792277559217062 5.5821807097456092
28 1 3.81360625584268 3.5151230439852088 8.1296948441473784
29 1 2.563441172114612 4.4674890050022924 10.4008646474492643
30 1 3.3730428742910004 3.2830982419560773 12.5598836371128098
31 1 3.1898769037555868 7.7539721854064876 1.1449408548456976
32 1 3.9745997908922104 6.574605509799147 3.5552293163619418
33 1 2.8357922085152826 7.4616688418743964 5.6198348060403768
34 1 3.5925479640150498 6.4007206608214862 7.9977574677127166
35 1 2.2856898748968862 7.305495373371973 10.3058439117648995
36 1 3.0915041563053349 6.304002290511237 12.7081821090470832
37 1 6.5719109556750502 1.9029661039415344 1.2790796320320677
38 1 7.3741313015590517 0.7414372169929758 3.2927225572349599
39 1 6.0179096913368442 1.7330748436187672 5.6489190657849102
40 1 6.9630374933566684 0.7076483639963932 7.9467345908878144
41 1 5.6912919308788466 1.4713239543769706 10.3507025923379779
42 1 6.4632070163216682 0.4341065822668662 12.4556926828550178
43 1 6.2747230413493682 4.831927122912811 1.0830658673413012
44 1 7.0820413677142984 3.6802765477626594 3.407836900403308
45 1 5.946998036077737 4.635341818721451 5.7251415387613616
46 1 6.6196726934216708 3.5079675409866474 7.9027161710001596
47 1 5.3993174216657512 4.3273474910381191 10.3483531521832912
48 1 6.2681479065907171 3.3734257808853272 12.5961299883440604
49 1 6.1921656928737097 7.6785072247412076 1.0842625191820483
50 1 6.9707295932128926 6.6776508079857876 3.491878047033393
51 1 5.5654533628835496 7.5399484840240306 5.7057195915316364
52 1 6.4043255874240615 6.4988584077690312 7.9407348828615234
53 1 5.1571619074409574 7.3461311291033402 10.2647835384664017
ITEM: TIMESTEP energy, energy_weight, force_weight, nsims
7 -86321.2298589027247988 1 1 362
ITEM: NUMBER OF ATOMS
53
ITEM: BOX BOUNDS xy xz yz pp pp pp
-1.8638905860890086 8.8157225442657002 -0.5524284375138658
-0.1737490756249327 8.7367865646043442 -1.3114621485751428
0.0 14.0610862738263354 -0.1737490756249327
ITEM: ATOMS id type x y z
1 1 0.6720013373493192 1.89496128206682 1.2328507345338
2 1 1.4834223423620424 0.8403656370002084 3.59657698761773
3 1 0.2463034493482943 1.8715183208046704 5.874645915338764
4 1 1.0731095832073814 0.8475232328435044 8.1661150582787538
5 1 -0.2002060416018667 1.845843000526837 10.4730373350336806
6 1 0.7284767368692894 0.7980129795555096 12.9091767763191872
7 1 0.546987708059795 4.7437155891012894 1.1764193769910529
8 1 1.3502375697769949 3.8163536869768544 3.495678850842634
9 1 0.0472835928109025 4.7870502249495602 5.876427454969658
10 1 0.973460460214222 3.7573740381342344 8.2266171002977764
11 1 -0.2680494128621904 4.756239763661955 10.4303886542565376
12 1 0.4717380457682028 3.7696788202977878 12.8406711639931076
13 1 0.459459841513855 7.7579393037954772 1.2693940916508475
14 1 1.1371775743179535 6.6873450294621222 3.6545297546953056
15 1 -0.060262564696881 7.774721707339567 5.9663832544064616
16 1 0.8307841934013496 6.7748252898412682 8.3439006209077604
17 1 -0.5878019923446518 7.5896265314028382 10.5967805186778624
18 1 0.4199014543932152 6.628764951139507 12.8514335194270918
19 1 3.6965560702568054 1.9124098978872688 1.2960300073793565
20 1 4.584522861304567 0.8794566343848346 3.3910390590100734
21 1 3.1873732413844254 1.9218108253120104 5.9102049964166436
22 1 4.1100880867929099 0.8991847425273922 8.189516924164284
23 1 2.816457050860096 1.77977245729648 10.664886796153768
24 1 3.5855189147648062 0.8735472287489774 12.7424966596292518
25 1 3.4607104169398602 4.9062251401288632 1.1040821186553531
26 1 4.2489721355176551 3.7846204668604338 3.586490970433514
27 1 3.1313042664950159 4.7109296678612296 5.7769101168666516
28 1 3.8831387858105058 3.8449473211819362 8.3259488320619664
29 1 2.6032869456335934 4.628628840799454 10.6537180753264664
30 1 3.5232408943115794 3.7860171742179288 12.8472011324586718
31 1 3.4068406402761826 7.739919462143475 1.1185987841244518
32 1 4.2249683049858113 6.7137901994848096 3.6278910267495408
33 1 2.8722369829336176 7.6314884412155006 5.7328975107209486
34 1 3.7211928884307106 6.7637039803788594 8.2718024010387161
35 1 2.4516766688508148 7.7252567979637918 10.4103712918371176
36 1 3.2895217682009297 6.5531244110182314 12.9897369579078194
37 1 6.6159127404733358 1.947632430061192 1.2599562905438553
38 1 7.3782657369068483 0.9092573314901872 3.4994683135934302
39 1 6.2511288819168698 1.936585632365771 5.944211733569893
40 1 7.0550386478774643 0.8824715496138906 8.2647240502084714
41 1 5.7205928145671106 1.808243239224262 10.5808015002362872
42 1 6.5472276465281524 0.7575273757437678 12.8300044239457822
43 1 6.4802654946888278 4.7790988836463688 1.2467557427499872
44 1 7.233909901790871 3.8521026752998298 3.3967787944270498
45 1 6.0509377141597653 4.78325563967155 5.7921635832564986
46 1 6.834291217931189 3.7296883386418158 8.1968258768094202
47 1 5.6569912237502332 4.6982531961070872 10.5410831498386096
48 1 6.3382806014242741 3.6617083607442354 12.9715053534451794
49 1 6.3635801874985694 7.6662404755478902 1.090380996190137
50 1 6.9746274731478656 6.7913452896060136 3.5748315176952574
51 1 5.7570372526186962 7.6137537148718498 5.8863911407032914
52 1 6.5958050129131314 6.6019031037207184 8.2096495874911497
53 1 5.3570794368025094 7.5492055235920468 10.5666110519687404
ITEM: TIMESTEP energy, energy_weight, force_weight, nsims
8 -86321.4507746574861382 1 1 362
ITEM: NUMBER OF ATOMS
53
ITEM: BOX BOUNDS xy xz yz pp pp pp
0.0 9.274832054662193 0.427119816988372
0.0 9.9500302979585716 0.133115465692022
0.0 13.8552676909996872 1.2901611937048177
ITEM: ATOMS id type x y z
1 1 1.1538791377959603 2.1171746639846627 1.1831013081344632
2 1 2.0693509816921423 1.3933914600086917 3.6089466952328366
3 1 1.1698482779788817 2.4930797541649934 5.8572285137104334
4 1 2.0224795517235363 1.7293275503653412 7.9476115450010924
5 1 1.1940627651899871 2.9692490141990752 10.4866807941435472
6 1 2.1379630327890245 2.2091957942193332 12.7037148273976328
7 1 1.1816557654973075 4.873404415071108 1.2090245139843241
8 1 2.2298368853779001 4.1431999317438741 3.3829520383981713
9 1 1.1708816612475452 5.3488559567041554 5.8041060318563718
10 1 2.2375201084872769 4.6512577618842474 8.1487456950177961
11 1 1.3782819571563689 5.7556250711711696 10.3319936580073808
12 1 2.1890388488800761 4.9680971846952442 12.643204716810729
13 1 1.3008590258472048 7.7546123515869382 1.2552290606802694
14 1 2.3822604750792302 7.0174094986753452 3.3513772688571524
15 1 1.3788367758125806 8.2016169711950688 5.7494788679310674