ITEM: TIMESTEP energy, energy_weight, force_weight, nsims
0 -43929.2576910059929116 1 1 39
ITEM: NUMBER OF ATOMS
27
ITEM: BOX BOUNDS pp pp pp
0.0 10.0000212275277001
0.0 10.0000212275277001
0.0 10.0000212275277001
ITEM: ATOMS id type x y z
1 1 3.7324519230558392 3.9370363573370928 5.3500913568971402
2 1 8.1697443423106186 4.812124214928323 3.3939372044743088
3 1 2.9105501783653382 2.900410156840625 9.6253994322999344
4 1 5.6256279417919474 0.0119180252989675 1.7664697497705946
5 1 9.6160204123906362 7.9068207841900922 5.2824312132716873
6 1 0.3501237432245682 4.098369699807165 6.064807874060385
7 1 6.6140380399377668 5.2134310668017463 8.8094277001973574
8 1 4.4898195307566144 1.5693163312635178 7.197675278852703
9 1 8.5057420555491828 0.4369569275495594 8.501989047582491
10 1 1.3590978850226758 7.1050490822306047 2.6403986049015544
11 1 2.3359189585679139 7.7210633898739074 8.323823669382243
12 1 6.7484413252421076 7.7213343904491732 6.5337758695613842
13 1 8.9012988952167778 6.984416826158692 0.5992472720511064
14 1 8.3117416437351448 1.0434022148802402 4.569422699734103
15 1 8.0139530116048423 2.7789398989898464 0.7881066729520718
16 1 3.9603504068269508 2.4029551008687689 2.6626516521391724
17 1 1.844343915077844 0.0501441064433149 3.9298763421381828
18 1 1.029262184864516 3.2119308181205679 2.5980055149116962
19 1 4.7188920170198366 6.1128119759610096 1.5339972562900126
20 1 3.645487738452768 7.2213493291067517 4.7876011628720568
21 1 0.775170645492142 9.9411521025633664 0.460414977345094
22 1 1.4289580333181846 0.2769455878857659 6.9746818054936944
23 1 5.4598325898501514 9.8252888566148648 4.7678741209965132
24 1 0.4825850244065228 4.719866019087398 9.1405014029834835
25 1 5.2038330464275653 8.6592173813386638 9.033114175027432
26 1 7.2835324611058878 3.046553467066083 6.5851549786262984
27 1 7.2608784130170454 7.8252986111390418 3.1674367236708063
ITEM: TIMESTEP energy, energy_weight, force_weight, nsims
1 -43930.3815066130935066 1 1 39
ITEM: NUMBER OF ATOMS
27
ITEM: BOX BOUNDS pp pp pp
0.0 10.0000212275277001
0.0 10.0000212275277001
0.0 10.0000212275277001
ITEM: ATOMS id type x y z
1 1 8.0208900263303775 3.4026102228849435 5.5449687705728322
2 1 6.0210007810689552 1.0646652600163324 0.7274145441179606
3 1 1.37151591138302 4.1971279094459835 5.6917820822205344
4 1 6.0254737905640283 2.7432198231651174 7.8109585806987668
5 1 7.6303101972277246 5.3696933985073399 9.9685401607013198
6 1 3.6795938108513742 9.5817513396460222 7.0829580353368735
7 1 7.8712897087665636 6.8950416364376634 4.8844063683651386
8 1 0.2248414772818556 8.9397829769087948 1.804088829626431
9 1 9.3404228273663392 9.9677001589182072 7.3836536736380172
10 1 2.0088362642536928 4.6285658252800702 8.9813020650433658
11 1 1.9599771605381152 1.9453601295098374 1.2500826536107828
12 1 3.4340922897134463 6.7054782340422802 5.7768342627649024
13 1 5.5476247762108626 3.7685009995789542 3.3556191231346682
14 1 4.1757198640020921 7.2224713314884808 9.0029401109754907
15 1 3.8847382463213682 0.4107308718782452 3.6406507281850132
16 1 8.8721658333746198 2.4275641531075922 0.8098437190943488
17 1 6.5254528518937126 8.5144440740213768 7.1234031211916094
18 1 3.6595227682456032 6.2335852323322296 1.806127833954724
19 1 1.3187757994290388 1.0441812165338646 5.3026302561491701
20 1 6.8580745579658622 0.3441337305092791 4.2787820827772381
21 1 6.8376085145216036 8.0666231234102313 1.307453775395232
22 1 1.1182453737534257 6.7157032557474272 3.6480767439485748
23 1 1.0684792681125117 7.5299999842943938 9.0595522311487695
24 1 8.7741926254021632 4.739423060602074 2.7546638474578998
25 1 4.6263148205017536 3.790823046963042 0.3267536936158359
26 1 9.1820514911838647 5.8741404693214828 7.3864886796560212
27 1 1.776365770777356 1.6890005853230604 8.2551545236149338
ITEM: TIMESTEP energy, energy_weight, force_weight, nsims
2 -39039.957771004865208 1 1 39
ITEM: NUMBER OF ATOMS
24
ITEM: BOX BOUNDS pp pp pp
0.0 10.0000212275277001
0.0 10.0000212275277001
0.0 10.0000212275277001
ITEM: ATOMS id type x y z
1 1 0.8625988310801712 9.7667027322512698 7.5675560640164976
2 1 1.1287683960911532 2.7760598928763184 1.1214383805313757
3 1 3.1213206257779396 9.2104635514955113 9.575835327087816
4 1 9.3481418437518702 4.9382104825777286 3.1458606778702927
5 1 1.5112302079613006 4.9018514053965614 6.3893105628979052
6 1 3.964606415861386 3.2669209348507429 4.7109450001503204
7 1 9.2453486255477433 1.0606142514170609 5.2425451286035703
8 1 8.3134226473034918 7.0161858935964254 5.327259308430449
9 1 7.5979571285503048 5.9108025471458454 9.3919209366838637
10 1 5.880774483403826 3.333255075661425 1.5468112834909666
11 1 2.925930211013275 0.3351407114193634 5.0374956933352379
12 1 9.0429211958452704 8.7710036186327046 2.9190021963068444
13 1 8.1725943483604642 2.9085601741410602 7.5719890734266598
14 1 7.437181787264727 0.5206191051433016 9.9973682218960356
15 1 5.660033014825256 0.6203093167605254 7.340728582518854
16 1 5.3013912535190802 9.9367180931510806 2.4363641717878157
17 1 3.7657729937880848 7.2165393188963103 6.977252810951292
18 1 2.9750593153019964 2.2307287352755503 8.5057810556319692
19 1 3.573951586599526 6.3587494980244586 0.4740150062145316
20 1 1.962533165963871 7.8334496284415992 2.8610350732572348
21 1 5.212124064027309 5.8930185093948096 3.830606131412515
22 1 0.4271259066807769 6.859480560950452 8.6425283459120426
23 1 5.3855184320999028 4.1700258519151374 7.66063426159808
24 1 7.1540001861414755 3.2797579621005202 4.6875119504078554
ITEM: TIMESTEP energy, energy_weight, force_weight, nsims
3 -43930.6964773922163672 1 1 39
ITEM: NUMBER OF ATOMS
27
ITEM: BOX BOUNDS pp pp pp
0.0 10.0000212275277001
0.0 10.0000212275277001
0.0 10.0000212275277001
ITEM: ATOMS id type x y z
1 1 6.4500946919273092 4.5244616042930152 2.5524944183030952
2 1 0.0620811317826147 8.1367922723616708 5.0785247804296603
3 1 3.564049565580028 3.688494829745996 0.642334363514155
4 1 3.5481345317964172 8.5845722228857824 9.1256353714266396
5 1 2.6534016325037092 3.237089871526905 4.8122972152955592
6 1 3.385405186362982 1.6671525389451578 7.6462932311556822
7 1 9.8009788050107432 5.1424839161988052 4.7772801409631258
8 1 6.9783158132077778 2.091695440142864 0.0830151762203212
9 1 5.7757592604829426 6.99121984059978 6.7233532719864862
10 1 2.0496863509681429 0.5429271524976704 1.5633513186012976
11 1 2.832496012675993 7.2140813136785846 2.8441950375100778
12 1 0.5361631381393708 7.0158898929680902 0.2239574754053421
13 1 6.4357246614233521 3.9277633376528062 5.8573484336762186
14 1 7.1678902156265112 0.2961156285789365 6.2125751877331945
15 1 5.0199936561828187 0.5969502671751434 3.644003735302603
16 1 9.8760979644698086 1.8786949879965246 6.1492660533438395
17 1 0.0628721334617122 0.4839320272658708 9.0968843103953763
18 1 8.1079732111860583 1.0212141677806017 3.4454133137451302
19 1 6.2356072366244364 7.0180378975277629 0.8769258614928502
20 1 7.8643526940410276 5.3578223733081414 8.3778237840108929
21 1 1.2812717198173189 4.3783592941545902 7.4312747747256269
22 1 0.4623649814844618 2.911129179594412 2.7471118314268712
23 1 2.8021909483459706 7.3065715100119881 6.1687910947905875
24 1 7.2295993466194624 7.3836396736082995 3.9276513374150582
25 1 7.3044945056030324 9.1639644527896316 9.0577192272577634
26 1 9.7452226866545396 3.5735785858077388 9.8902459945025144
27 1 2.3211269271681547 0.2371155033365231 5.2061060512525819
ITEM: TIMESTEP energy, energy_weight, force_weight, nsims
4 -42299.3044302721600604 1 1 39
ITEM: NUMBER OF ATOMS
26
ITEM: BOX BOUNDS pp pp pp
0.0 10.0000212275277001
0.0 10.0000212275277001
0.0 10.0000212275277001
ITEM: ATOMS id type x y z
1 1 1.3596448861838215 9.1569394378772966 5.787291284962528
2 1 4.8550143059731896 5.9584396482674186 7.3956276990558596
3 1 8.458224954682338 1.5112982081056476 2.2717568223678506
4 1 8.1800183641197819 7.1085800897260443 7.4658278480731024
5 1 2.7556478495466884 6.1653210874246352 3.5418985185589312
6 1 2.4997823064085512 1.4967471772174722 2.3659190222504974
7 1 8.4158678647689005 7.9908809626286902 0.700397486767549
8 1 5.0216336596641327 2.7024527366268552 5.798251308227898
9 1 7.5631550546742616 8.0283270421172901 4.3960623317336829
10 1 7.1248041241655855 4.1185987427483308 0.4359819254798754
11 1 2.0824894206008024 3.3759121662116902 9.8544989186204718
12 1 4.9313274679668214 8.3704407683386091 0.2415555127615454
13 1 1.9424441233198904 4.7103009987832678 6.8165374697930804
14 1 7.7526564569380342 0.2998886365880827 6.720850266673236
15 1 9.3251197948818554 4.7627701101619824 3.382966181185588
16 1 4.464092476144554 9.3364558189453817 5.1255448802414971
17 1 4.7566940972641368 0.5981402697012192 8.1270112515990256
18 1 5.7300211633924772 4.3986843372995406 3.0861655511525661
19 1 9.9778811805299536 1.5935123826256438 8.3657507583828981
20 1 1.9527461451884896 6.924964699956794 9.1000243170608197
21 1 0.8749338572643266 8.3577377413732812 2.5884224945693566
22 1 8.0652381204702195 4.0188405309867603 7.0593179851549976
23 1 0.352611748505977 1.858904945987247 4.9394564852226788
24 1 5.5177257127426778 1.0216121686254571 1.5244032359243226
25 1 2.2443577642065482 9.8651419412129294 9.7225146384510702
26 1 4.397958335758422 5.3914184446241436 0.4238668997627256
ITEM: TIMESTEP energy, energy_weight, force_weight, nsims
5 -42300.1602352645486456 1 1 39
ITEM: NUMBER OF ATOMS
26
ITEM: BOX BOUNDS pp pp pp
0.0 10.0000212275277001
0.0 10.0000212275277001
0.0 10.0000212275277001
ITEM: ATOMS id type x y z
1 1 4.4681484847544386 2.6756206796691528 1.8057988332563384
2 1 0.1149932441017093 8.76624660853477 1.4075179878063651
3 1 7.6854483142720662 4.2383149968758014 4.514671583511266
4 1 4.3448522230275133 7.621336178178141 6.291612355509205
5 1 7.2771454475478654 3.882422241405073 9.9177310528463742
6 1 9.7501896971982518 0.9599610377556262 6.2808353326322992
7 1 9.2662166698453472 8.3902888104710059 7.8033795646104238
8 1 5.1229788747945122 2.4368461728109825 6.8584735588128406
9 1 1.854936937564164 5.0488487174348498 1.8793689894272596
10 1 1.7906238010435652 3.9428043695811308 8.5823832182390768
11 1 5.5894828650650484 7.3942226960733919 0.0944972005937685
12 1 0.4237428994995043 2.2873168553978842 3.3978722128273407
13 1 4.7720851299354248 9.9689411615525448 3.790880047084039
14 1 0.5641781976082896 6.0504818436498304 5.3480343525306369
15 1 7.115562104547104 0.4329489190415663 9.6235774284322808
16 1 3.6766798046656728 9.9568591359054448 8.7011964704497018
17 1 7.0786470261856858 7.8797857268014724 3.5986886391100614
18 1 3.8133990948863082 7.0765050216387495 2.9208172001596408
19 1 3.2497258983500088 4.0949926926386286 4.5665046935399102
20 1 7.2547303999663626 5.4372335418780624 7.3449725915278173
21 1 1.8566759412556312 7.0380099399233815 8.951080000889533
22 1 1.7240776597828592 8.8293427424719778 4.6809339364443874
23 1 0.4067388634042162 1.0606582515104619 9.4633150882356746
24 1 6.5989360078799546 9.7191116312273422 6.6899802011438584
25 1 7.4524468196685492 2.0027762513898102 2.5102363285998086
26 1 8.909327912260359 5.6905470795989342 1.9227990816184124
ITEM: TIMESTEP energy, energy_weight, force_weight, nsims
6 -42299.934930340604296 1 1 39
ITEM: NUMBER OF ATOMS
26
ITEM: BOX BOUNDS pp pp pp
0.0 10.0000212275277001
0.0 10.0000212275277001
0.0 10.0000212275277001
ITEM: ATOMS id type x y z
1 1 5.4644995997570378 9.9289360766318194 3.244486887228907
2 1 3.9845534582039362 5.973692680645767 2.0889854343902043
3 1 9.2222815765822084 0.9926501071462916 0.7890346749219864
4 1 7.292160479420998 0.6874474592779008 6.4929177828299522
5 1 4.9340584737640594 4.6214768102318758 8.086851166349275
6 1 7.3681966408266284 7.6060201456660598 8.3945968196158258
7 1 3.2722119460822281 1.2521486579963901 0.8284687586306192
8 1 2.8565510637388112 1.8517449307883372 7.4569718292740054
9 1 7.4101237298272826 3.0029273744588707 8.6090232747892106
10 1 0.4913510430145736 7.3143025264229902 4.0209495354636458
11 1 6.6128280373692362 4.4270493975114231 5.4204685062901108
12 1 0.5160840955166178 6.3303624377658743 0.6052902848789014
13 1 1.0618732540896068 0.573006216347951 3.3635931400614987
14 1 3.626879698952584 8.1228622427917241 8.1553963118533623
15 1 1.4626991049419856 4.3245081798422307 3.9072442940960422
16 1 7.4483818110395586 7.102180076140427 4.2020209198326128
17 1 6.2941523609009966 2.2358777462056039 1.4697461199010244
18 1 1.8891630102175002 5.4554795806098086 7.0294289217080408
19 1 0.568257206266998 9.4050699645959402 7.8266656140408442
20 1 7.5641330567503148 6.068291881456056 1.214054577132246
21 1 4.0104955132723878 2.7911169248386068 4.7408410636121374
22 1 9.2861757122133728 3.308590023303728 6.2573912828664824
23 1 4.1444637976533319 6.9889698358235854 5.4127814899725113
24 1 1.492581168374084 3.5023144345318858 9.6151394105204916
25 1 8.2480455085242834 1.6482514988230078 3.7506989617897096
26 1 5.3434073427086606 8.3209206632198925 0.671724425901859
ITEM: TIMESTEP energy, energy_weight, force_weight, nsims
7 -40669.5320694310510150 1 1 39
ITEM: NUMBER OF ATOMS
25
ITEM: BOX BOUNDS pp pp pp
0.0 10.0000212275277001
0.0 10.0000212275277001
0.0 10.0000212275277001
ITEM: ATOMS id type x y z
1 1 0.1982414208166319 2.350835990233017 1.9521631439509248
2 1 3.657085763072455 7.983737947465868 5.9025015295248746
3 1 4.4851885209261466 9.9677021589224512 1.0114701470964986
4 1 0.6795694425548544 0.8720348511104664 6.4124086119292479
5 1 7.8284246177747666 3.4868394016822868 3.5275914881887078
6 1 0.039243083303187 7.6066321469651852 9.5505192733482076
7 1 6.624985063175541 8.1612453242693448 3.6785058085418192
8 1 8.785430649257659 4.6421778541749808 6.982921822985177
9 1 6.5080728150002702 8.7758116288389002 8.9324809614084532
10 1 4.4216483860464351 5.1821050003043929 2.566418447860305
11 1 2.8356550193817696 1.890751013588432 4.2237349659260657
12 1 3.1094156005065679 4.6274298228686234 9.8747689616486696
13 1 4.7819561508891182 2.0832544222247078 8.8285707408332126
14 1 1.2905617395376921 7.2016512872927674 2.9553742735156084
15 1 7.9493918745578008 0.543669154072753 5.1386929081514499
16 1 8.790339659678251 1.417088008121109 8.9129409199298646
17 1 7.6814333057492146 5.5186057146107004 0.997324117068038
18 1 2.4434141867532229 5.0779457792005873 4.8978283968567268
19 1 5.7003341003743158 3.606853656442338 6.1121279745090469
20 1 9.1571474383188285 7.841656645863031 5.8233963616045168
21 1 2.3563500019378761 9.9333660860356136 8.7943416681735088
22 1 5.031238680053173 6.1348370227146392 8.0542490971432876
23 1 7.8767707204013728 0.1175132494510463 1.5146562152338514
24 1 1.6086674147959622 3.5503955365959614 7.4345457816691516
25 1 5.0040546223482618 0.662914407200407 6.0990469467413178
ITEM: TIMESTEP energy, energy_weight, force_weight, nsims
8 -45559.8278546356805244 1 1 39
ITEM: NUMBER OF ATOMS
28
ITEM: BOX BOUNDS pp pp pp
0.0 10.0000212275277001
0.0 10.0000212275277001
0.0 10.0000212275277001
ITEM: ATOMS id type x y z
1 1 2.024896298345102 8.8887218685189158 9.7868007749143544
2 1 8.6167692912320534 7.3486475993289347 4.8837073668813344
3 1 5.7763032616377208 1.7703537580153664 4.665289903236043
4 1 7.1410011585478124 2.1291735196993926 9.5351082406344646
5 1 8.5985422525406392 4.2694320629295 3.9174903158457668
6 1 5.2099510594145659 8.1662483348894757 2.6480826212127866
7 1 2.5254753609484384 6.1618730801053836 0.9600290378999736
8 1 2.0867744296967978 1.7997018203139148 3.623673692147039
9 1 0.1017442159773579 4.9909005944255726 8.25461552247077
10 1 7.9819569436852448 7.1866572554642119 0.8910158914024366
11 1 4.6744109225976712 1.3332358301240439 1.3958789630996456
12 1 1.3361408362906406 6.347818474820647 3.7668869961528322
13 1 8.7056644799341624 0.0026440056125583 2.0744524035402385
14 1 2.7778458966675546 2.668119663746384 6.7783003886253824
15 1 5.1632639603096076 6.4684817309583656 8.9850850730737406
16 1 3.7118358792931688 6.1872861340508996 6.332973443308382
17 1 7.2640634197780134 9.5997293778088704 7.744985440654399
18 1 1.4636341069267596 2.7370408100486276 0.7750476452310434
19 1 9.2863927126740098 2.1982336662966988 7.4049447188335469
20 1 2.1389675404896331 9.6738035350496592 6.0144537671712932
21 1 4.492608536676972 5.0734087695696584 3.3656981445298935
22 1 6.806088447612436 4.1976609105774108 6.4502836923285099
23 1 5.1159788599352432 8.8433977723072684 5.5857678571790208
24 1 4.4071483552665196 0.5524691727529774 8.3684267640633845
25 1 0.1106162348104204 7.911606794349587 7.456397828055545
26 1 4.3816863012169893 3.5611185593582398 9.1757894778911844
27 1 9.4079659707434314 0.4010438513151392 4.98372157918633
28 1 8.8689638265775664 4.2878881021070248 0.9024189156081864
ITEM: TIMESTEP energy, energy_weight, force_weight, nsims
9 -45561.7283861076011808 1 1 39
ITEM: NUMBER OF ATOMS
28
ITEM: BOX BOUNDS pp pp pp
0.0 10.0000212275277001
0.0 10.0000212275277001
0.0 10.0000212275277001
ITEM: ATOMS id type x y z
1 1 2.4070211094998815 6.6069360248619766 8.6917024502962868
2 1 3.0296084310960376 4.3163551625354275 0.5505691687197472
3 1 5.1128198532294675 3.476167379028269 5.7513592086877754
4 1 9.617651415852846 2.483491271826786 8.9521450031502638
5 1 8.772453621710696 7.701913349223191 9.7147246219148258
6 1 6.2250712142591134 5.0614297441412024 2.4345501679371422
7 1 2.2290497317114482 4.0191145315683947 4.2083469332611463
8 1 5.5152007073827276 8.1829163702715189 2.477120258302728
9 1 8.7083024855339826 9.6408974651983552 4.0565256109826979
10 1 6.5244178496966638 6.2362352379575255 7.7758735062219868
11 1 7.3535876098153326 1.694038596017489 6.9407317334262376
12 1 2.7168327671520398 8.3611117485354481 3.8720642194176
13 1 3.6888548305101874 6.1857931308816294 5.8659354519042966
14 1 9.0749952639304397 3.305440016617057 3.701430857205926
15 1 1.9137260623586764 9.2216845753149244 7.1030090779001887
16 1 7.5651020588072618 1.0423042125494577 1.4731561271396114
17 1 3.4474883181498424 0.4387649313874964 1.7840297870461332
18 1 4.8848003692015034 0.1916244067703768 8.8765418426637854
19 1 9.5487312695527234 7.3375795758343054 6.5646509351013754
20 1 9.4970521598509842 4.927630460119004 0.9533030236223384
21 1 2.3940820820335836 2.3107699051828044 7.0855160407668745
22 1 6.383807551216397 8.5715091951562634 5.725333153441012
23 1 6.0368298146700088 3.4804743881709652 9.0315781717668848
24 1 0.4255589033544233 0.0216230459002831 1.224404599102737
25 1 8.8150407121123688 6.603149016823112 3.7245259062309018
26 1 9.821445848457124 4.3511112363138232 6.4354906609266278
27 1 1.4582460954893678 1.0920773182052312 4.2417070040761793
28 1 5.7663202404462802 1.0644792596215005 3.91640531354258
ITEM: TIMESTEP energy, energy_weight, force_weight, nsims
10 -43930.6634613433984668 1 1 39
ITEM: NUMBER OF ATOMS
27
ITEM: BOX BOUNDS pp pp pp
0.0 10.0000212275277001
0.0 10.0000212275277001
0.0 10.0000212275277001
ITEM: ATOMS id type x y z
1 1 0.0216980460594896 2.677625683925272 9.1328543867507968
2 1 6.5334758689245582 7.5720650735879894 3.1612837106095086
3 1 2.8650900818649978 3.2798929623870921 2.3281689421165801
4 1 6.6880711970915226 0.3397017211012388 0.5129560888766472
5 1 2.8454400401529054 7.4122587343593596 6.6334410811255388
6 1 9.4552970712154424 1.9824472082363696 5.0681937584995023
7 1 3.0264124243117196 7.999513980954415 0.1804723830974379
8 1 9.2602426571640244 9.8479519047228088 8.2998686185317006
9 1 4.0437475838581634 0.2314984914130208 2.7099217524816956
10 1 8.3824357938010295 5.2077970548421568 1.848906924763965
11 1 4.4382664213223411 1.5794903528604044 6.3939805728111612
12 1 6.2879253476826156 8.9723340460065196 6.5578029205647654
13 1 7.495747911585867 3.0365784458916245 7.3968057015564615
14 1 4.6393108480890488 5.0956268167329784 5.6028598934611118
15 1 7.255397401382238 6.119950991115342 8.8901778716096428
16 1 0.9261079658940768 0.3210066814163757 1.4315620388458328
17 1 0.7677736297901398 5.6418569762421012 9.03257517388327
18 1 0.8576518205789132 7.4337157799072662 2.6591196446416094
19 1 3.5419315186289824 3.5472725299666048 8.8223737276785138
20 1 9.8490999071597294 7.2247893364090219 6.4768327486854736
21 1 1.7032066154788864 3.934745352473866 5.781549272773682
22 1 1.8969790268089358 0.1842253910641291 5.368599396185048
23 1 6.7629043559434808 2.463444229271961 2.9896453462644686
24 1 5.1150808580290121 5.4848506429571806 1.5353572591769564
25 1 8.1738633510542389 5.0669327558227115 5.0163136483710886
26 1 2.237912750525406 0.7708356362900088 8.4447579260952264
27 1 8.9355999680293188 9.1199713594033707 4.3127211548213449
ITEM: TIMESTEP energy, energy_weight, force_weight, nsims
11 -40670.4269221104254950 1 1 39
ITEM: NUMBER OF ATOMS
25
ITEM: BOX BOUNDS pp pp pp
0.0 10.0000212275277001
0.0 10.0000212275277001
0.0 10.0000212275277001
ITEM: ATOMS id type x y z
1 1 7.2743454416041571 1.652550507948722 8.7403275535151402
2 1 1.372513913501527 1.9728161877921376 2.552501418317955
3 1 9.9197760571874038 8.885224861095649 8.3565717388981522
4 1 3.2465908916951794 8.9112789164018498 8.5546341593348104
5 1 8.3418397076257574 6.2803683316409727 5.8659344519021746
6 1 7.4398327928921449 8.597422250163156 0.1187842521490651
7 1 6.0114597608157707 7.2561744030316167 3.8486301696730112
8 1 3.7941110539426526 2.4188811346757295 4.6020467689867894
9 1 3.744276948157391 5.0152986462164941 7.4248367610593453
10 1 2.3045278919325818 2.4126951215443806 8.636854333867543
11 1 5.3109912738975061 3.3698961534412093 1.966913175261528
12 1 2.602877525253748 5.382765426255963 3.960384406899124
13 1 8.9328449621811358 4.80112319157592 9.7249346435881314
14 1 3.8017490701562382 0.0946882009992143 1.6277244552492616
15 1 0.7060464987589796 7.5386280026095048 2.794816932692792
16 1 7.5889001093245324 9.4650000918125112 6.4386076675432485
17 1 6.2752463207682334 3.1533776938270251 6.2125411876610208
18 1 8.8133777085822302 3.6513917509854998 3.6484067446490834
19 1 3.9976904860905394 6.6778841754670406 0.4965490540486424
20 1 9.9550281320186844 1.2777857124174028 5.3721204036592614
21 1 7.4452918044802523 0.4493579538738165 3.5610175591438416
22 1 3.0194874096116568 8.688195442851793 4.804940199678467
23 1 0.8449507936178302 4.3415042159205371 6.2453662573403808
24 1 5.7361751764558974 7.3536576099639257 7.5627650538463884
25 1 1.7652477471765906 4.7588331018047052 1.1293503973265953
ITEM: TIMESTEP energy, energy_weight, force_weight, nsims
12 -42299.4707483544393652 1 1 39
ITEM: NUMBER OF ATOMS
26
ITEM: BOX BOUNDS pp pp pp
0.0 10.0000212275277001
0.0 10.0000212275277001
0.0 10.0000212275277001
ITEM: ATOMS id type x y z
1 1 0.4683239941339456 4.764619114086953 7.743007436455594
2 1 7.3299185595718957 6.4283726458168742 1.2678046912302075
3 1 5.6947270884720408 9.9764921775814504 1.9425451235342888
4 1 6.415376618229578 5.5173067118532444 4.7842251557056432
5 1 0.1500893186018405 4.6334378356221216 2.4020440989349408
6 1 8.3287276797922232 1.0450282183318362 9.0757352655012795
7 1 1.3371028383327288 8.0860061645555472 1.3575998818427924
8 1 3.3078620217583641 6.8456845316649552 3.886844250791886
9 1 1.6269304535637958 9.6969255841319502 6.4679857299054788
10 1 4.082699666543629 7.2386873659110398 0.4090958684075445
11 1 1.6561125155099672 1.6957195995858362 9.3361608183191685
12 1 5.0947298148288693 8.9927770894019546 7.7466854442630782
13 1 6.9809918188882642 9.6289724398845298 5.3753714105603301
14 1 7.4109127315021351 4.3146551589267475 7.481398881126487
15 1 4.6938709639064396 3.017548405495639 8.787257653135928
16 1 8.9328589622108546 1.868393966130048 2.8954831463818222
17 1 3.0259724233777083 3.4854113986509954 4.6672599074178658
18 1 2.3579150052599842 4.545649649269902 0.2251734779866095
19 1 3.6769948053343394 6.1098209696118557 6.977253810953414
20 1 9.5974263729201716 1.8707039710336064 5.9136405531702172
21 1 9.4783831202213112 7.8008355592101406 4.6595448910408282
22 1 5.50947669523209 2.9146331870325382 2.8789551112969646
23 1 2.7487478348996946 0.559476187627106 2.7602258592646508
24 1 7.8583796813618268 7.7945915459556724 8.0150230138761884
25 1 5.7479552014619246 2.4379771752118158 5.8328973817727912
26 1 7.1600001988779925 3.5018044334492818 0.4304569137516664
ITEM: TIMESTEP energy, energy_weight, force_weight, nsims
13 -47190.6906812895128946 1 1 39
ITEM: NUMBER OF ATOMS
29
ITEM: BOX BOUNDS pp pp pp
0.0 10.0000212275277001
0.0 10.0000212275277001
0.0 10.0000212275277001
ITEM: ATOMS id type x y z
1 1 7.2637454191029782 1.3623728919746912 0.5427331520858564
2 1 1.4265140281301767 3.4768373804505136 8.7070284828295962
3 1 0.0889361887891404 5.5096956956969728 5.7165681348350842
4 1 6.914510677765537 9.0323381733801753 4.0565926111249224
5 1 9.5795323349356316 5.8121133376534972 1.8635949559429578
6 1 3.9880884657078668 1.9739131901207976 2.0801004155295457
7 1 2.7556978496528264 7.8993927684222848 6.276036322445207
8 1 9.6786285452919394 8.6452083516010206 9.2177465669555243
9 1 5.8366603897607092 1.1417974237484991 7.1320871396255941
10 1 5.3469483502253281 4.7487770804583036 1.712356634902074
11 1 9.5141281960991116 2.8550360605228412 3.9129863062848882
12 1 7.1035430790337388 7.1963152759657589 7.4502278149581605
13 1 4.7112750008508294 4.0600326184271918 6.2058981735595742
14 1 1.4120839974988542 0.592130256943475 4.7934581753050196
15 1 3.8485601695244186 8.5467071425077492 0.7102495076809094
16 1 7.7547774614403934 3.9686304244033442 8.4526749429010604
17 1 2.8117729686861882 6.1769731121589509 2.7995239426845888
18 1 0.4450239446738059 1.2978007549042994 1.1562784544880818
19 1 8.958698017060664 1.3389568422683125 7.0434369514435611
20 1 6.5395848818924548 2.1942706578842297 4.0797746603345777
21 1 2.3905120744553559 6.2575162831318263 9.3223187889360233
22 1 2.4858702768768146 0.4657469886636118 8.7196755096760494
23 1 6.7684013676122526 7.2412353713198137 0.5317151286973664
24 1 6.9199056892177886 5.2106980610002633 4.5269006094704096
25 1 9.7232976401131862 8.6658583954358654 3.0066343823279156
26 1 4.8743903471036472 3.0537164822713612 9.2643556658949056
27 1 3.8372671455521714 9.0054141162271826 3.6873868273939864
28 1 9.5016801696750832 8.4390129139000134 6.0038527446679906
29 1 2.4959942983675636 3.3889331938520537 4.2942271155631549
ITEM: TIMESTEP energy, energy_weight, force_weight, nsims
14 -42299.8499705292010708 1 1 39
ITEM: NUMBER OF ATOMS
26
ITEM: BOX BOUNDS pp pp pp
0.0 10.0000212275277001
0.0 10.0000212275277001
0.0 10.0000212275277001
ITEM: ATOMS id type x y z
1 1 6.6690841567868162 3.9467693779978452 6.940315732543172
2 1 9.3298938050158782 3.4805753883853634 4.5980137604257276
3 1 9.9770931788572242 9.5466262650843312 6.0002347369878706
4 1 2.7715438832899668 4.9931085991126106 6.3951425752777995
5 1 4.0893816807278638 7.4603658364786282 5.1629929597343427
6 1 8.8211677251184746 4.7096619974268288 1.6769035596441202
7 1 1.7178376465368822 8.7543885833631682 2.0668933874943503
8 1 7.1595661979567167 9.3856489233699581 3.865389205248225
9 1 4.5496056576675112 8.6709504062449216 0.0459020974385977
10 1 2.7774698958693996 1.8822159954707368 0.6285843343263046
11 1 2.777243895389658 0.7163375206042284 7.5444010148641568
12 1 6.4127006125490924 2.3497659879616717 3.3240550561320999
13 1 7.2920024790856033 1.04952322787361 0.3165826720253174
14 1 1.1723084885158088 7.505460932204163 8.7708206182442404
15 1 6.313169401269386 6.3943505735965793 3.4521273279972924
16 1 4.4978165477322678 4.3281551875839108 0.2967026298249924
17 1 9.6600045057577938 2.1970056636899584 8.1361122709181988
18 1 5.8380673927474228 0.476667011844072 6.7377173024777068
19 1 3.5221394766154592 2.1629575914144721 4.9661415418683364
20 1 8.5248430960958822 6.2551592781284988 6.0752348961943294
21 1 8.0966541871586202 7.4043417175535265 9.5497312716754782
22 1 1.2064355609589923 5.8066853261311948 3.2495428979615455
23 1 5.2797122074999221 6.4274826439276236 8.1728773489612028
24 1 1.1459724326109919 4.4421484295628666 9.5326272353679152
25 1 9.9263670711784684 1.9008250349730432 1.8185508603256818
26 1 4.3411872152476248 0.0917711948071445 2.8415760319505888
ITEM: TIMESTEP energy, energy_weight, force_weight, nsims
15 -45560.8110681203033904 1 1 39
ITEM: NUMBER OF ATOMS
28
ITEM: BOX BOUNDS pp pp pp
0.0 10.0000212275277001
0.0 10.0000212275277001
0.0 10.0000212275277001
ITEM: ATOMS id type x y z
1 1 0.0779081653794228 5.5412357626485954 9.5746153244980584
2 1 7.6242611843871924 5.7203701429057894 5.4486635661411267
3 1 3.5918726246413786 3.3230860540751519 5.6426099778405342
4 1 6.6974992171048352 9.9988732250907794 0.6456483705489578
5 1 3.1128436077833643 7.7009153471046838 9.0901682961389696
6 1 7.9602108975238642 3.1175306177327062 3.1541336954318262
7 1 1.464700109189614 6.5071668130770552 4.4442434340100343
8 1 4.7409760638987084 0.5224031089302926 7.8462086555258016
9 1 8.074780140725526 0.2622345566579499 6.670314159397802
10 1 5.7261961552729472 6.2678733051171767 2.1286495185870704
11 1 0.6817104470996682 1.961282163308307 1.5506472916338464
12 1 2.8599240708988566 0.8179337362674186 3.605481653529921
13 1 9.7020325949728488 8.744484562339423 2.0607303744118246
14 1 7.342602586496894 4.0676646346280414 8.9782300585222696
15 1 0.6241663249479828 2.6087295376760974 5.8860104945185592
16 1 4.2484030182901318 3.160011707909367 1.4625381046002226
17 1 9.6907155709496564 7.6288131940499638 6.9737608035386386
18 1 2.043349337516259 2.3250219354362774 8.8647798176959682
19 1 6.134415021818838 7.5434650128772596 8.2256994610892509
20 1 5.9985417333940508 8.8696768280910892 4.649578869885474
21 1 2.454243209740513 8.8300837440449378 6.1589440738878398
22 1 9.4724421076100392 9.9756341757601276 9.3316358087137115
23 1 4.3608042568896659 6.2400722461025273 6.0019377406029193
24 1 3.3402530905164492 8.1725563482797998 2.0866254293805082
25 1 4.200287916153882 4.6447648596665418 8.70758548401197
26 1 6.520015840352306 2.931758223384679 6.2620442927436511
27 1 2.1459135552342739 5.2992402489530388 1.7632887430181182
28 1 9.1423424068914727 5.8044573214017028 2.4406681809241442
ITEM: TIMESTEP energy, energy_weight, force_weight, nsims
16 -42299.1369872781924656 1 1 39
ITEM: NUMBER OF ATOMS
26
ITEM: BOX BOUNDS pp pp pp