ITEM: TIMESTEP energy, energy_weight, force_weight, nsims
0 -4880.7933017247000864 1 1 99
ITEM: NUMBER OF ATOMS
3
ITEM: BOX BOUNDS xy xz yz pp pp pp
-1.91480141664405 3.8296028332880998 -1.91480141664405
0.0 3.316531793698327 0.0
0.0 2.3781718706634103 0.0
ITEM: ATOMS id type x y z
1 1 0.0 0.0 0.0
2 1 1.9148016081241912 1.1055104873483823 1.1890859353317052
3 1 -1.914801415636183e-07 2.2110213063499442 1.1890859353317052
ITEM: TIMESTEP energy, energy_weight, force_weight, nsims
1 -4881.1487968074418404 1 1 99
ITEM: NUMBER OF ATOMS
3
ITEM: BOX BOUNDS xy xz yz pp pp pp
-1.9231359583157998 3.8462719166315998 -1.9231359583157998
0.0 3.3309676366008812 0.0
0.0 2.3885233214124737 0.0
ITEM: ATOMS id type x y z
1 1 0.0 0.0 0.0
2 1 1.9231361506293952 1.1103224345013725 1.1942616607062369
3 1 -1.923135957303546e-07 2.2206452020995085 1.1942616607062369
ITEM: TIMESTEP energy, energy_weight, force_weight, nsims
2 -4881.4905032866906824 1 1 99
ITEM: NUMBER OF ATOMS
3
ITEM: BOX BOUNDS xy xz yz pp pp pp
-1.9314704999875498 3.8629409999750998 -1.9314704999875498
0.0 3.3454034795034358 0.0
0.0 2.3988747721615371 0.0
ITEM: ATOMS id type x y z
1 1 0.0 0.0 0.0
2 1 1.9314706931345996 1.1151343816543626 1.1994373860807686
3 1 -1.931470498970909e-07 2.2302690978490731 1.1994373860807686
ITEM: TIMESTEP energy, energy_weight, force_weight, nsims
3 -4881.8187712347396429 1 1 99
ITEM: NUMBER OF ATOMS
3
ITEM: BOX BOUNDS xy xz yz pp pp pp
-1.9397521239343998 3.8795042478687996 -1.9397521239343998
0.0 3.3597476662605774 0.0
0.0 2.409160499413781 0.0
ITEM: ATOMS id type x y z
1 1 0.0 0.0 0.0
2 1 1.9397523179096118 1.119915776761937 1.2045802497068905
3 1 -1.9397521229133998e-07 2.2398318894986402 1.2045802497068905
ITEM: TIMESTEP energy, energy_weight, force_weight, nsims
4 -4882.1339450095301799 1 1 99
ITEM: NUMBER OF ATOMS
3
ITEM: BOX BOUNDS xy xz yz pp pp pp
-1.9480072890187998 3.8960145780375998 -1.9480072890187998
0.0 3.3740460249450126 0.0
0.0 2.4194133649176153 0.0
ITEM: ATOMS id type x y z
1 1 0.0 0.0 0.0
2 1 1.9480074838195284 1.1246818958468032 1.2097066824588076
3 1 -1.948007287993455e-07 2.249364129098209 1.2097066824588076
ITEM: TIMESTEP energy, energy_weight, force_weight, nsims
5 -4882.4363672002727982 1 1 99
ITEM: NUMBER OF ATOMS
3
ITEM: BOX BOUNDS xy xz yz pp pp pp
-1.9562095363782998 3.9124190727565998 -1.9562095363782998
0.0 3.3882527274840344 0.0
0.0 2.4296005069246301 0.0
ITEM: ATOMS id type x y z
1 1 0.0 0.0 0.0
2 1 1.956209731999253 1.1294174628862541 1.214800253462315
3 1 -1.956209535348638e-07 2.2588352645977805 1.214800253462315
ITEM: TIMESTEP energy, energy_weight, force_weight, nsims
6 -4882.7263790356187202 1 1 99
ITEM: NUMBER OF ATOMS
3
ITEM: BOX BOUNDS xy xz yz pp pp pp
-1.9643853248753498 3.9287706497506996 -1.9643853248753498
0.0 3.4024136019503497 0.0
0.0 2.4397547871832353 0.0
ITEM: ATOMS id type x y z
1 1 0.0 0.0 0.0
2 1 1.9643855213138822 1.1341377539029964 1.2198773935916176
3 1 -1.9643853238413842e-07 2.2682758480473529 1.2198773935916176
ITEM: TIMESTEP energy, energy_weight, force_weight, nsims
7 -4883.0043247374508158 1 1 99
ITEM: NUMBER OF ATOMS
3
ITEM: BOX BOUNDS xy xz yz pp pp pp
-1.9725346545099498 3.9450693090198996 -1.9725346545099498
0.0 3.4165286483439586 0.0
0.0 2.4498762056934309 0.0
ITEM: ATOMS id type x y z
1 1 0.0 0.0 0.0
2 1 1.972534851763415 1.1388427688970313 1.2249381028467155
3 1 -1.972534653471695e-07 2.2776858794469273 1.2249381028467155
ITEM: TIMESTEP energy, energy_weight, force_weight, nsims
8 -4883.2705460786451114 1 1 99
ITEM: NUMBER OF ATOMS
3
ITEM: BOX BOUNDS xy xz yz pp pp pp
-1.9806575252821 3.9613150505641998 -1.9806575252821
0.0 3.4305978666648614 0.0
0.0 2.4599647624552166 0.0
ITEM: ATOMS id type x y z
1 1 0.0 0.0 0.0
2 1 1.980657723347852 1.1435325078683585 1.2299823812276085
3 1 -1.9806575242395692e-07 2.2870653587965029 1.2299823812276085
ITEM: TIMESTEP energy, energy_weight, force_weight, nsims
9 -4883.5253882334761784 1 1 99
ITEM: NUMBER OF ATOMS
3
ITEM: BOX BOUNDS xy xz yz pp pp pp
-1.9887274783293498 3.9774549566586996 -1.9887274783293498
0.0 3.4445754288403508 0.0
0.0 2.4699875957201828 0.0
ITEM: ATOMS id type x y z
1 1 0.0 0.0 0.0
2 1 1.9887276772020976 1.1481916947942692 1.2349937978600911
3 1 -1.9887274772825714e-07 2.2963837340460813 1.2349937978600911
ITEM: TIMESTEP energy, energy_weight, force_weight, nsims
10 -4883.7691935190455294 1 1 99
ITEM: NUMBER OF ATOMS
3
ITEM: BOX BOUNDS xy xz yz pp pp pp
-1.99677097251415 3.9935419450283 -1.99677097251415
0.0 3.4585071629431338 0.0
0.0 2.4799775672367392 0.0
ITEM: ATOMS id type x y z
1 1 0.0 0.0 0.0
2 1 1.9967711721912468 1.1528356056974725 1.2399887836183696
3 1 -1.996770971463138e-07 2.305671557245661 1.2399887836183696
ITEM: TIMESTEP energy, energy_weight, force_weight, nsims
11 -4884.002298538092873 1 1 99
ITEM: NUMBER OF ATOMS
3
ITEM: BOX BOUNDS xy xz yz pp pp pp
-2.0047880078364999 4.0095760156729998 -2.0047880078364999
0.0 3.4723930689732098 0.0
0.0 2.4899346770048858 0.0
ITEM: ATOMS id type x y z
1 1 0.0 0.0 0.0
2 1 2.0047882083153006 1.1574642405779676 1.2449673385024429
3 1 -2.004788006781268e-07 2.3149288283952419 1.2449673385024429
ITEM: TIMESTEP energy, energy_weight, force_weight, nsims
12 -4884.2250381246385587 1 1 99
ITEM: NUMBER OF ATOMS
3
ITEM: BOX BOUNDS xy xz yz pp pp pp
-2.0127785842963997 4.0255571685927993 -2.0127785842963997
0.0 3.4862331469305792 0.0
0.0 2.4998589250246228 0.0
ITEM: ATOMS id type x y z
1 1 0.0 0.0 0.0
2 1 2.0127787855742576 1.1620775994357549 1.2499294625123114
3 1 -2.0127785832369618e-07 2.3241555474948244 1.2499294625123114
ITEM: TIMESTEP energy, energy_weight, force_weight, nsims
13 -4884.4377367724289342 1 1 99
ITEM: NUMBER OF ATOMS
3
ITEM: BOX BOUNDS xy xz yz pp pp pp
-2.0207162430313996 4.0414324860627993 -2.0207162430313996
0.0 3.4999815687425358 0.0
0.0 2.5097174495475404 0.0
ITEM: ATOMS id type x y z
1 1 0.0 0.0 0.0
2 1 2.0207164451030235 1.1666604062481265 1.2548587247737699
3 1 -2.0207162419677842e-07 2.3333211624944093 1.2548587247737699
ITEM: TIMESTEP energy, energy_weight, force_weight, nsims
14 -4884.6407117642490903 1 1 99
ITEM: NUMBER OF ATOMS
3
ITEM: BOX BOUNDS xy xz yz pp pp pp
-2.0286274429039497 4.0572548858078994 -2.0286274429039497
0.0 3.5136841624817864 0.0
0.0 2.5195431123220482 0.0
ITEM: ATOMS id type x y z
1 1 0.0 0.0 0.0
2 1 2.0286276457666936 1.1712279370377901 1.2597715561610241
3 1 -2.0286274418361696e-07 2.3424562254439958 1.2597715561610241
ITEM: TIMESTEP energy, energy_weight, force_weight, nsims
15 -4884.8342714031741708 1 1 99
ITEM: NUMBER OF ATOMS
3
ITEM: BOX BOUNDS xy xz yz pp pp pp
-2.0365386427764998 4.0730772855529995 -2.0365386427764998
0.0 3.5273867562210368 0.0
0.0 2.5293687750965562 0.0
ITEM: ATOMS id type x y z
1 1 0.0 0.0 0.0
2 1 2.0365388464303642 1.1757954678274536 1.2646843875482781
3 1 -2.0365386417045559e-07 2.3515912883935828 1.2646843875482781
ITEM: TIMESTEP energy, energy_weight, force_weight, nsims
16 -4885.0187124275169027 1 1 99
ITEM: NUMBER OF ATOMS
3
ITEM: BOX BOUNDS xy xz yz pp pp pp
-2.04439692492415 4.0887938498483001 -2.04439692492415
0.0 3.5409976938148744 0.0
0.0 2.539128714374245 0.0
ITEM: ATOMS id type x y z
1 1 0.0 0.0 0.0
2 1 2.0443971293638423 1.1803324465717016 1.2695643571871225
3 1 -2.0443969238480699e-07 2.3606652472431726 1.2695643571871225
ITEM: TIMESTEP energy, energy_weight, force_weight, nsims
17 -4885.1943250448985054 1 1 99
ITEM: NUMBER OF ATOMS
3
ITEM: BOX BOUNDS xy xz yz pp pp pp
-2.0522022893468996 4.1044045786937993 -2.0522022893468996
0.0 3.5545169752632978 0.0
0.0 2.5488229301551134 0.0
ITEM: ATOMS id type x y z
1 1 0.0 0.0 0.0
2 1 2.0522024945671284 1.1848388732705333 1.2744114650775567
3 1 -2.0522022882667113e-07 2.369678101992764 1.2744114650775567
ITEM: TIMESTEP energy, energy_weight, force_weight, nsims
18 -4885.361387490003381 1 1 99
ITEM: NUMBER OF ATOMS
3
ITEM: BOX BOUNDS xy xz yz pp pp pp
-2.0600076537696501 4.1200153075393002 -2.0600076537696501
0.0 3.5680362567117228 0.0
0.0 2.558517145935983 0.0
ITEM: ATOMS id type x y z
1 1 0.0 0.0 0.0
2 1 2.060007859770415 1.1893452999693657 1.2792585729679915
3 1 -2.060007652685353e-07 2.3786909567423567 1.2792585729679915
ITEM: TIMESTEP energy, energy_weight, force_weight, nsims
19 -4885.5201710586568428 1 1 99
ITEM: NUMBER OF ATOMS
3
ITEM: BOX BOUNDS xy xz yz pp pp pp
-2.0677865593299498 4.1355731186598996 -2.0677865593299498
0.0 3.5815097100874396 0.0
0.0 2.5681784999684418 0.0
ITEM: ATOMS id type x y z
1 1 0.0 0.0 0.0
2 1 2.0677867661086054 1.1938364506454897 1.2840892499842209
3 1 -2.0677865582415587e-07 2.3876732594419501 1.2840892499842209
ITEM: TIMESTEP energy, energy_weight, force_weight, nsims
20 -4885.6709353458591066 1 1 99
ITEM: NUMBER OF ATOMS
3
ITEM: BOX BOUNDS xy xz yz pp pp pp
-2.0755125471653497 4.1510250943306995 -2.0755125471653497
0.0 3.5948915073177444 0.0
0.0 2.5777741305040816 0.0
ITEM: ATOMS id type x y z
1 1 0.0 0.0 0.0
2 1 2.0755127547166041 1.1982970492761975 1.2888870652520408
3 1 -2.075512546072892e-07 2.3965944580415459 1.2888870652520408
ITEM: TIMESTEP energy, energy_weight, force_weight, nsims
21 -4885.8139345043698542 1 1 99
ITEM: NUMBER OF ATOMS
3
ITEM: BOX BOUNDS xy xz yz pp pp pp
-2.0832385350007496 4.1664770700014993 -2.0832385350007496
0.0 3.6082733045480486 0.0
0.0 2.5873697610397214 0.0
ITEM: ATOMS id type x y z
1 1 0.0 0.0 0.0
2 1 2.0832387433246029 1.202757647906906 1.2936848805198607
3 1 -2.083238533904225e-07 2.4055156566411422 1.2936848805198607
ITEM: TIMESTEP energy, energy_weight, force_weight, nsims
22 -4885.949411802462237 1 1 99
ITEM: NUMBER OF ATOMS
3
ITEM: BOX BOUNDS xy xz yz pp pp pp
-2.0909116051112497 4.1818232102224995 -2.0909116051112497
0.0 3.6215634456329404 0.0
0.0 2.5968996680785414 0.0
ITEM: ATOMS id type x y z
1 1 0.0 0.0 0.0
2 1 2.0909118142024101 1.2071876944921987 1.2984498340392707
3 1 -2.0909116040106865e-07 2.4143757511407413 1.2984498340392707
ITEM: TIMESTEP energy, energy_weight, force_weight, nsims
23 -4886.0776028892662454 1 1 99
ITEM: NUMBER OF ATOMS
3
ITEM: BOX BOUNDS xy xz yz pp pp pp
-2.0985582163593 4.1971164327185999 -2.0985582163593
0.0 3.6348077586451258 0.0
0.0 2.6063967133689526 0.0
ITEM: ATOMS id type x y z
1 1 0.0 0.0 0.0
2 1 2.0985584262151211 1.2116024650547832 1.3031983566844765
3 1 -2.0985582152547115e-07 2.4232052935903421 1.3031983566844765
ITEM: TIMESTEP energy, energy_weight, force_weight, nsims
24 -4886.1987389240637186 1 1 99
ITEM: NUMBER OF ATOMS
3
ITEM: BOX BOUNDS xy xz yz pp pp pp
-2.1062048276073497 4.2124096552146995 -2.1062048276073497
0.0 3.6480520716573102 0.0
0.0 2.6158937586593628 0.0
ITEM: ATOMS id type x y z
1 1 0.0 0.0 0.0
2 1 2.1062050382278321 1.2160172356173675 1.3079468793296811
3 1 -2.106204826498737e-07 2.4320348360399424 1.3079468793296811
ITEM: TIMESTEP energy, energy_weight, force_weight, nsims
25 -4886.3130396374258454 1 1 99
ITEM: NUMBER OF ATOMS
3
ITEM: BOX BOUNDS xy xz yz pp pp pp
-2.1137985211304997 4.2275970422609994 -2.1137985211304997
0.0 3.6612047285240822 0.0
0.0 2.6253250804529538 0.0
ITEM: ATOMS id type x y z
1 1 0.0 0.0 0.0
2 1 2.1137987325103516 1.2204014541345365 1.3126625402264769
3 1 -2.1137985200178897e-07 2.4408032743895456 1.3126625402264769
ITEM: TIMESTEP energy, energy_weight, force_weight, nsims
26 -4886.4207191816226444 1 1 99
ITEM: NUMBER OF ATOMS
3
ITEM: BOX BOUNDS xy xz yz pp pp pp
-2.1213657557911998 4.2427315115823996 -2.1213657557911998
0.0 3.674311557318148 0.0
0.0 2.6347235404981354 0.0
ITEM: ATOMS id type x y z
1 1 0.0 0.0 0.0
2 1 2.1213659679277752 1.2247703966289971 1.3173617702490677
3 1 -2.1213657546746068e-07 2.4495411606891504 1.3173617702490677
ITEM: TIMESTEP energy, energy_weight, force_weight, nsims
27 -4886.5219873551291132 1 1 99
ITEM: NUMBER OF ATOMS
3
ITEM: BOX BOUNDS xy xz yz pp pp pp
-2.1289065315894495 4.2578130631788991 -2.1289065315894495
0.0 3.6873725580395066 0.0
0.0 2.6440891387949068 0.0
ITEM: ATOMS id type x y z
1 1 0.0 0.0 0.0
2 1 2.1289067444801022 1.2291240631007501 1.3220445693974534
3 1 -2.1289065304688872e-07 2.458248494938756 1.3220445693974534
ITEM: TIMESTEP energy, energy_weight, force_weight, nsims
28 -4886.6170442964426006 1 1 99
ITEM: NUMBER OF ATOMS
3
ITEM: BOX BOUNDS xy xz yz pp pp pp
-2.1364208485252498 4.2728416970504997 -2.1364208485252498
0.0 3.700387730688159 0.0
0.0 2.6534218753432692 0.0
ITEM: ATOMS id type x y z
1 1 0.0 0.0 0.0
2 1 2.1364210621673343 1.2334624535497951 1.3267109376716346
3 1 -2.136420847400732e-07 2.4669252771383636 1.3267109376716346
ITEM: TIMESTEP energy, energy_weight, force_weight, nsims
29 -4886.7060845657565552 1 1 99
ITEM: NUMBER OF ATOMS
3
ITEM: BOX BOUNDS xy xz yz pp pp pp
-2.1439087065985998 4.2878174131971996 -2.1439087065985998
0.0 3.713357075264105 0.0
0.0 2.6627217501432212 0.0
ITEM: ATOMS id type x y z
1 1 0.0 0.0 0.0
2 1 2.1439089209894702 1.2377855679761325 1.3313608750716106
3 1 -2.1439087054701411e-07 2.475571507287972 1.3313608750716106
ITEM: TIMESTEP energy, energy_weight, force_weight, nsims
30 -4886.7892976891921532 1 1 99
ITEM: NUMBER OF ATOMS
3
ITEM: BOX BOUNDS xy xz yz pp pp pp
-2.1513965646719497 4.3027931293438995 -2.1513965646719497
0.0 3.7263264198400506 0.0
0.0 2.6720216249431736 0.0
ITEM: ATOMS id type x y z
1 1 0.0 0.0 0.0
2 1 2.1513967798116061 1.2421086824024697 1.3360108124715868
3 1 -2.1513965635395498e-07 2.484217737437581 1.3360108124715868
ITEM: TIMESTEP energy, energy_weight, force_weight, nsims
31 -4886.8668662540094372 1 1 99
ITEM: NUMBER OF ATOMS
3
ITEM: BOX BOUNDS xy xz yz pp pp pp
-2.1588315050203999 4.3176630100407998 -2.1588315050203999
0.0 3.739204108270584 0.0
0.0 2.6812557762463066 0.0
ITEM: ATOMS id type x y z
1 1 0.0 0.0 0.0
2 1 2.1588317209035499 1.246401244783391 1.3406278881231533
3 1 -2.1588315038840866e-07 2.4928028634871926 1.3406278881231533
ITEM: TIMESTEP energy, energy_weight, force_weight, nsims
32 -4886.938967541281727 1 1 99
ITEM: NUMBER OF ATOMS
3
ITEM: BOX BOUNDS xy xz yz pp pp pp
-2.1662399865064002 4.3324799730128003 -2.1662399865064002
0.0 3.7520359686284106 0.0
0.0 2.6904570658010298 0.0
ITEM: ATOMS id type x y z
1 1 0.0 0.0 0.0
2 1 2.1662402031303985 1.2506785311416049 1.3452285329005149
3 1 -2.1662399853661869e-07 2.501357437486806 1.3452285329005149
ITEM: TIMESTEP energy, energy_weight, force_weight, nsims
33 -4887.0057744782880036 1 1 99
ITEM: NUMBER OF ATOMS
3
ITEM: BOX BOUNDS xy xz yz pp pp pp
-2.1736220091299496 4.3472440182598993 -2.1736220091299496
0.0 3.7648220009135294 0.0
0.0 2.6996254936073428 0.0
ITEM: ATOMS id type x y z
1 1 0.0 0.0 0.0
2 1 2.1736222264921503 1.2549405414771098 1.3498127468036714
3 1 -2.173622007985851e-07 2.5098814594364196 1.3498127468036714
ITEM: TIMESTEP energy, energy_weight, force_weight, nsims
34 -4887.0674541418943592 1 1 99
ITEM: NUMBER OF ATOMS
3
ITEM: BOX BOUNDS xy xz yz pp pp pp
-2.1810040317535 4.362008063507 -2.1810040317535
0.0 3.77760803319865 0.0
0.0 2.7087939214136566 0.0
ITEM: ATOMS id type x y z
1 1 0.0 0.0 0.0
2 1 2.1810042498539026 1.2592025518126156 1.3543969607068283
3 1 -2.1810040306055161e-07 2.5184054813860342 1.3543969607068283
ITEM: TIMESTEP energy, energy_weight, force_weight, nsims
35 -4887.124168166724303 1 1 99
ITEM: NUMBER OF ATOMS
3
ITEM: BOX BOUNDS xy xz yz pp pp pp
-2.1883331366521497 4.3766662733042994 -2.1883331366521497
0.0 3.7903024093383562 0.0
0.0 2.7178966257231504 0.0
ITEM: ATOMS id type x y z
1 1 0.0 0.0 0.0
2 1 2.1883333554854629 1.2634340101027051 1.3589483128615752
3 1 -2.188333135500308e-07 2.5268683992356508 1.3589483128615752
ITEM: TIMESTEP energy, energy_weight, force_weight, nsims
36 -4887.1760735614952865 1 1 99
ITEM: NUMBER OF ATOMS
3
ITEM: BOX BOUNDS xy xz yz pp pp pp
-2.1956357826883495 4.391271565376699 -2.1956357826883495
0.0 3.802950957405356 0.0
0.0 2.7269664682842342 0.0
ITEM: ATOMS id type x y z
1 1 0.0 0.0 0.0
2 1 2.1956360022519275 1.2676501923700867 1.3634832341421171
3 1 -2.1956357815326637e-07 2.5353007650352688 1.3634832341421171
ITEM: TIMESTEP energy, energy_weight, force_weight, nsims
37 -4887.2233235253545445 1 1 99
ITEM: NUMBER OF ATOMS
3
ITEM: BOX BOUNDS xy xz yz pp pp pp
-2.2029384287245502 4.4058768574491003 -2.2029384287245502
0.0 3.8155995054723576 0.0
0.0 2.7360363108453192 0.0
ITEM: ATOMS id type x y z
1 1 0.0 0.0 0.0
2 1 2.2029386490183929 1.271866374637469 1.3680181554226596
3 1 -2.2029384275650204e-07 2.5437331308348884 1.3680181554226596
ITEM: TIMESTEP energy, energy_weight, force_weight, nsims
38 -4887.2660636383088787 1 1 99
ITEM: NUMBER OF ATOMS
3
ITEM: BOX BOUNDS xy xz yz pp pp pp
-2.2102146158983001 4.4204292317966001 -2.2102146158983001
0.0 3.8282022254666508 0.0
0.0 2.7450732916579934 0.0
ITEM: ATOMS id type x y z
1 1 0.0 0.0 0.0
2 1 2.2102148369197612 1.2760672808821427 1.3725366458289967
3 1 -2.2102146147349409e-07 2.5521349445845076 1.3725366458289967
ITEM: TIMESTEP energy, energy_weight, force_weight, nsims
39 -4887.3044386640265201 1 1 99
ITEM: NUMBER OF ATOMS
3
ITEM: BOX BOUNDS xy xz yz pp pp pp
-2.2174378853471497 4.4348757706942994 -2.2174378853471497
0.0 3.8407132893155308 0.0
0.0 2.7540445489738482 0.0
ITEM: ATOMS id type x y z
1 1 0.0 0.0 0.0
2 1 2.2174381070909379 1.2802376350814007 1.3770222744869241
3 1 -2.2174378841799882e-07 2.5604756542341298 1.3770222744869241
ITEM: TIMESTEP energy, energy_weight, force_weight, nsims
40 -4887.3385883321041092 1 1 99
ITEM: NUMBER OF ATOMS
3
ITEM: BOX BOUNDS xy xz yz pp pp pp
-2.2246611547959998 4.4493223095919996 -2.2246611547959998
0.0 3.8532243531644116 0.0
0.0 2.7630158062897032 0.0
ITEM: ATOMS id type x y z
1 1 0.0 0.0 0.0
2 1 2.2246613772621151 1.2844079892806588 1.3815079031448516
3 1 -2.2246611536250365e-07 2.5688163638837526 1.3815079031448516
ITEM: TIMESTEP energy, energy_weight, force_weight, nsims
41 -4887.3686477462294988 1 1 99
ITEM: NUMBER OF ATOMS
3
ITEM: BOX BOUNDS xy xz yz pp pp pp
-2.2318579653824 4.4637159307648 -2.2318579653824
0.0 3.8656895889405862 0.0
0.0 2.7719542018571488 0.0
ITEM: ATOMS id type x y z
1 1 0.0 0.0 0.0
2 1 2.2318581885681961 1.2885630674572091 1.3859771009285744
3 1 -2.2318579642076491e-07 2.5771265214833768 1.3859771009285744
ITEM: TIMESTEP energy, energy_weight, force_weight, nsims
42 -4887.3947461596762879 1 1 99
ITEM: NUMBER OF ATOMS
3
ITEM: BOX BOUNDS xy xz yz pp pp pp
-2.2390283171063499 4.4780566342126998 -2.2390283171063499
0.0 3.8781089966440536 0.0
0.0 2.780859735676184 0.0
ITEM: ATOMS id type x y z
1 1 0.0 0.0 0.0
2 1 2.2390285410091813 1.2927028696110512 1.390429867838092
3 1 -2.2390283159278242e-07 2.5854061270330018 1.390429867838092
ITEM: TIMESTEP energy, energy_weight, force_weight, nsims
43 -4887.4170125536124943 1 1 99
ITEM: NUMBER OF ATOMS
3
ITEM: BOX BOUNDS xy xz yz pp pp pp
-2.2461722099678499 4.4923444199356998 -2.2461722099678499
0.0 3.8904825762748146 0.0
0.0 2.78973240774681 0.0
ITEM: ATOMS id type x y z
1 1 0.0 0.0 0.0
2 1 2.2461724345850707 1.2968273957421857 1.394866203873405
3 1 -2.246172208785564e-07 2.5936551805326284 1.394866203873405
ITEM: TIMESTEP energy, energy_weight, force_weight, nsims
44 -4887.4355681540050683 1 1 99
ITEM: NUMBER OF ATOMS
3
ITEM: BOX BOUNDS xy xz yz pp pp pp
-2.2533161028293498 4.5066322056586996 -2.2533161028293498
0.0 3.9028561559055754 0.0
0.0 2.7986050798174356 0.0
ITEM: ATOMS id type x y z
1 1 0.0 0.0 0.0
2 1 2.2533163281609596 1.3009519218733201 1.3993025399087178
3 1 -2.2533161016433039e-07 2.6019042340322552 1.3993025399087178
ITEM: TIMESTEP energy, energy_weight, force_weight, nsims
45 -4887.4505350031581656 1 1 99
ITEM: NUMBER OF ATOMS
3
ITEM: BOX BOUNDS xy xz yz pp pp pp
-2.26040707796595 4.5208141559319 -2.26040707796595
0.0 3.9151380793909238 0.0
0.0 2.807412028391242 0.0
ITEM: ATOMS id type x y z
1 1 0.0 0.0 0.0
2 1 2.2604073040066575 1.3050458959590383 1.403706014195621
3 1 -2.2604070767761719e-07 2.6100921834318852 1.403706014195621
ITEM: TIMESTEP energy, energy_weight, force_weight, nsims
46 -4887.462028068458949 1 1 99
ITEM: NUMBER OF ATOMS
3
ITEM: BOX BOUNDS xy xz yz pp pp pp
-2.2674980531025502 4.5349961062051004 -2.2674980531025502
0.0 3.9274200028762722 0.0
0.0 2.816218976965049 0.0
ITEM: ATOMS id type x y z
1 1 0.0 0.0 0.0
2 1 2.2674982798523553 1.3091398700447574 1.4081094884825245
3 1 -2.2674980519090395e-07 2.6182801328315146 1.4081094884825245
ITEM: TIMESTEP energy, energy_weight, force_weight, nsims
47 -4887.4701598682877375 1 1 99
ITEM: NUMBER OF ATOMS
3
ITEM: BOX BOUNDS xy xz yz pp pp pp
-2.2745625693767 4.5491251387534 -2.2745625693767
0.0 3.9396560982889132 0.0
0.0 2.824993063790445 0.0
ITEM: ATOMS id type x y z
1 1 0.0 0.0 0.0
2 1 2.2745627968329565 1.313218568107768 1.4124965318952225
3 1 -2.274562568179471e-07 2.6264375301811454 1.4124965318952225
ITEM: TIMESTEP energy, energy_weight, force_weight, nsims
48 -4887.4750404720139158 1 1 99
ITEM: NUMBER OF ATOMS
3
ITEM: BOX BOUNDS xy xz yz pp pp pp
-2.2816006267883999 4.5632012535767998 -2.2816006267883999
0.0 3.9518463656288482 0.0
0.0 2.833734288867432 0.0
ITEM: ATOMS id type x y z
1 1 0.0 0.0 0.0
2 1 2.2816008549484623 1.3172819901480706 1.416867144433716
3 1 -2.2816006255874664e-07 2.6345643754807774 1.416867144433716
ITEM: TIMESTEP energy, energy_weight, force_weight, nsims
49 -4887.4767757312663434 1 1 99
ITEM: NUMBER OF ATOMS
3
ITEM: BOX BOUNDS xy xz yz pp pp pp
-2.2886122253376495 4.577224450675299 -2.2886122253376495
0.0 3.963990804896076 0.0
0.0 2.842442652196009 0.0
ITEM: ATOMS id type x y z
1 1 0.0 0.0 0.0
2 1 2.2886124541988715 1.3213301361656651 1.4212213260980045
3 1 -2.2886122241330251e-07 2.6426606687304108 1.4212213260980045
ITEM: TIMESTEP energy, energy_weight, force_weight, nsims
50 -4887.4754683683877374 1 1 99
ITEM: NUMBER OF ATOMS
3
ITEM: BOX BOUNDS xy xz yz pp pp pp
-2.2955973650244497 4.5911947300488994 -2.2955973650244497
0.0 3.9760894160905984 0.0
0.0 2.8511181537761764 0.0
ITEM: ATOMS id type x y z
1 1 0.0 0.0 0.0
2 1 2.2955975945841858 1.3253630061605519 1.4255590768880879
3 1 -2.2955973638161487e-07 2.6507264099300456 1.4255590768880879
ITEM: TIMESTEP energy, energy_weight, force_weight, nsims
51 -4887.4712192009326374 1 1 99
ITEM: NUMBER OF ATOMS
3
ITEM: BOX BOUNDS xy xz yz pp pp pp
-2.3025825047112498 4.6051650094224996 -2.3025825047112498
0.0 3.9881880272851204 0.0
0.0 2.8597936553563442 0.0
ITEM: ATOMS id type x y z
1 1 0.0 0.0 0.0
2 1 2.3025827349695001 1.3293958761554392 1.4298968276781721
3 1 -2.3025825034992722e-07 2.6587921511296808 1.4298968276781721
ITEM: TIMESTEP energy, energy_weight, force_weight, nsims
52 -4887.4641255089991318 1 1 99
ITEM: NUMBER OF ATOMS
3
ITEM: BOX BOUNDS xy xz yz pp pp pp
-2.3095411855355996 4.6190823710711992 -2.3095411855355996
0.0 4.0002408104069351 0.0
0.0 2.8684362951881016 0.0
ITEM: ATOMS id type x y z
1 1 0.0 0.0 0.0
2 1 2.3095414164897177 1.3334134701276179 1.4342181475940508
3 1 -2.3095411843199592e-07 2.6668273402793172 1.4342181475940508
ITEM: TIMESTEP energy, energy_weight, force_weight, nsims
53 -4887.4542800828337477 1 1 99
ITEM: NUMBER OF ATOMS
3
ITEM: BOX BOUNDS xy xz yz pp pp pp
-2.3164734074975 4.632946814995 -2.3164734074975
0.0 4.0122477654560447 0.0
0.0 2.8770460732714502 0.0
ITEM: ATOMS id type x y z
1 1 0.0 0.0 0.0
2 1 2.3164736391448404 1.3374157880770894 1.4385230366357251
3 1 -2.3164734062782104e-07 2.6748319773789554 1.4385230366357251
ITEM: TIMESTEP energy, energy_weight, force_weight, nsims
54 -4887.4417753045174776 1 1 99
ITEM: NUMBER OF ATOMS
3
ITEM: BOX BOUNDS xy xz yz pp pp pp
-2.32337917059695 4.6467583411939 -2.32337917059695
0.0 4.0242088924324477 0.0
0.0 2.8856229896063886 0.0
ITEM: ATOMS id type x y z
1 1 0.0 0.0 0.0
2 1 2.3233794029348665 1.3414028300038528 1.4428114948031945
3 1 -2.323379169374026e-07 2.6828060624285946 1.4428114948031945
ITEM: TIMESTEP energy, energy_weight, force_weight, nsims
55 -4887.4267001547245856 1 1 99
ITEM: NUMBER OF ATOMS
3
ITEM: BOX BOUNDS xy xz yz pp pp pp
-2.3302584748339497 4.6605169496678994 -2.3302584748339497
0.0 4.0361241913361425 0.0
0.0 2.8941670441929164 0.0
ITEM: ATOMS id type x y z
1 1 0.0 0.0 0.0
2 1 2.3302587078597967 1.3453745959079078 1.4470835220964582
3 1 -2.3302584736074046e-07 2.6907495954282346 1.4470835220964582
ITEM: TIMESTEP energy, energy_weight, force_weight, nsims
56 -4887.4091410290666318 1 1 99
ITEM: NUMBER OF ATOMS
3
ITEM: BOX BOUNDS xy xz yz pp pp pp
-2.3371377790709498 4.6742755581418996 -2.3371377790709498
0.0 4.0480394902398391 0.0
0.0 2.9027110987794452 0.0
ITEM: ATOMS id type x y z
1 1 0.0 0.0 0.0
2 1 2.337138012784727 1.3493463618119632 1.4513555493897226
3 1 -2.3371377778407836e-07 2.6986931284278756 1.4513555493897226
ITEM: TIMESTEP energy, energy_weight, force_weight, nsims
57 -4887.3891814659773445 1 1 99
ITEM: NUMBER OF ATOMS
3
ITEM: BOX BOUNDS xy xz yz pp pp pp
-2.3439906244455 4.687981248891 -2.3439906244455
0.0 4.0599089610708283 0.0
0.0 2.9112222916175642 0.0
ITEM: ATOMS id type x y z
1 1 0.0 0.0 0.0
2 1 2.343990858844562 1.3533028516933108 1.455611145808782
3 1 -2.3439906232117269e-07 2.7066061093775176 1.455611145808782
ITEM: TIMESTEP energy, energy_weight, force_weight, nsims
58 -4887.3669022827698427 1 1 99
ITEM: NUMBER OF ATOMS
3
ITEM: BOX BOUNDS xy xz yz pp pp pp
-2.3508170109575999 4.7016340219151998 -2.3508170109575999
0.0 4.0717326038291111 0.0
0.0 2.9197006227072734 0.0
ITEM: ATOMS id type x y z
1 1 0.0 0.0 0.0
2 1 2.3508172460393007 1.3572440655519502 1.4598503113536368
3 1 -2.3508170097202341e-07 2.7144885382771604 1.4598503113536368
ITEM: TIMESTEP energy, energy_weight, force_weight, nsims
59 -4887.3423832083062736 1 1 99
ITEM: NUMBER OF ATOMS
3
ITEM: BOX BOUNDS xy xz yz pp pp pp
-2.3576433974696998 4.7152867949393996 -2.3576433974696998
0.0 4.0835562465873938 0.0
0.0 2.9281789537969822 0.0
ITEM: ATOMS id type x y z
1 1 0.0 0.0 0.0
2 1 2.3576436332340389 1.3611852794105897 1.4640894768984912
3 1 -2.3576433962287404e-07 2.7223709671768038 1.4640894768984912
ITEM: TIMESTEP energy, energy_weight, force_weight, nsims
60 -4887.3156992094868656 1 1 99
ITEM: NUMBER OF ATOMS
3
ITEM: BOX BOUNDS xy xz yz pp pp pp
-2.3644168662568999 4.7288337325137998 -2.3644168662568999
0.0 4.0952882332002636 0.0
0.0 2.9365915613898724 0.0
ITEM: ATOMS id type x y z
1 1 0.0 0.0 0.0
2 1 2.3644171026985861 1.3650959412238135 1.4682957806949362
3 1 -2.3644168650123749e-07 2.73019229197645 1.4682957806949362
ITEM: TIMESTEP energy, energy_weight, force_weight, nsims
61 -4887.2869259334931941 1 1 99
ITEM: NUMBER OF ATOMS
3
ITEM: BOX BOUNDS xy xz yz pp pp pp
-2.3711903350441 4.7423806700882 -2.3711903350441
0.0 4.1070202198131334 0.0
0.0 2.945004168982762 0.0
ITEM: ATOMS id type x y z
1 1 0.0 0.0 0.0
2 1 2.3711905721631333 1.3690066030370372 1.472502084491381
3 1 -2.3711903337960099e-07 2.738013616776096 1.472502084491381
ITEM: TIMESTEP energy, energy_weight, force_weight, nsims
62 -4887.2561352179345703 1 1 99
ITEM: NUMBER OF ATOMS
3
ITEM: BOX BOUNDS xy xz yz pp pp pp
-2.3779373449688497 4.7558746899376994 -2.3779373449688497
0.0 4.1187063783532967 0.0
0.0 2.9533839148272416 0.0
ITEM: ATOMS id type x y z
1 1 0.0 0.0 0.0
2 1 2.3779375827625837 1.3729019888275529 1.4766919574136208
3 1 -2.3779373437172087e-07 2.7458043895257434 1.4766919574136208
ITEM: TIMESTEP energy, energy_weight, force_weight, nsims
63 -4887.2233960432465665 1 1 99
ITEM: NUMBER OF ATOMS
3
ITEM: BOX BOUNDS xy xz yz pp pp pp
-2.3846843548935999 4.7693687097871998 -2.3846843548935999
0.0 4.13039253689346 0.0
0.0 2.9617636606717216 0.0
ITEM: ATOMS id type x y z
1 1 0.0 0.0 0.0
2 1 2.3846845933620351 1.3767973746180686 1.4808818303358608
3 1 -2.3846843536384075e-07 2.7535951622753908 1.4808818303358608
ITEM: TIMESTEP energy, energy_weight, force_weight, nsims
64 -4887.1887783422509983 1 1 99
ITEM: NUMBER OF ATOMS
3
ITEM: BOX BOUNDS xy xz yz pp pp pp
-2.3914049059558997 4.7828098119117994 -2.3914049059558997
0.0 4.1420328673609159 0.0
0.0 2.9701105447677918 0.0
ITEM: ATOMS id type x y z
1 1 0.0 0.0 0.0
2 1 2.3914051450963898 1.3806774843858765 1.485055272383896
3 1 -2.3914049046971697e-07 2.7613553829750398 1.485055272383896
ITEM: TIMESTEP energy, energy_weight, force_weight, nsims
65 -4887.1523474218697628 1 1 99
ITEM: NUMBER OF ATOMS
3
ITEM: BOX BOUNDS xy xz yz pp pp pp
-2.3980989981557497 4.7961979963114994 -2.3980989981557497
0.0 4.1536273697556663 0.0
0.0 2.9784245671154524 0.0
ITEM: ATOMS id type x y z
1 1 0.0 0.0 0.0
2 1 2.3980992379656492 1.3845423181309764 1.4892122835577262
3 1 -2.3980989968934963e-07 2.76908505162469 1.4892122835577262
ITEM: TIMESTEP energy, energy_weight, force_weight, nsims
66 -4887.1141661400110934 1 1 99
ITEM: NUMBER OF ATOMS
3
ITEM: BOX BOUNDS xy xz yz pp pp pp
-2.4047666314931498 4.8095332629862996 -2.4047666314931498
0.0 4.1651760440777102 0.0
0.0 2.9867057277147034 0.0
ITEM: ATOMS id type x y z
1 1 0.0 0.0 0.0
2 1 2.4047668719698123 1.3883918758533689 1.4933528638573518
3 1 -2.4047666302273867e-07 2.7767841682243414 1.4933528638573518
ITEM: TIMESTEP energy, energy_weight, force_weight, nsims
67 -4887.0742988511997281 1 1 99
ITEM: NUMBER OF ATOMS
3
ITEM: BOX BOUNDS xy xz yz pp pp pp
-2.4114342648305498 4.8228685296610996 -2.4114342648305498
0.0 4.176724718399754 0.0
0.0 2.9949868883139538 0.0
ITEM: ATOMS id type x y z
1 1 0.0 0.0 0.0
2 1 2.4114345059739759 1.3922414335757607 1.497493444156977
3 1 -2.411434263561278e-07 2.7844832848239932 1.497493444156977
ITEM: TIMESTEP energy, energy_weight, force_weight, nsims
68 -4887.0328048758881322 1 1 99
ITEM: NUMBER OF ATOMS
3
ITEM: BOX BOUNDS xy xz yz pp pp pp
-2.4180754393054995 4.836150878610999 -2.4180754393054995
0.0 4.1882275646490905 0.0
0.0 3.0032351871647949 0.0
ITEM: ATOMS id type x y z
1 1 0.0 0.0 0.0
2 1 2.4180756811130429 1.3960757152754446 1.5016175935823974
3 1 -2.4180754380327314e-07 2.7921518493736458 1.5016175935823974
ITEM: TIMESTEP energy, energy_weight, force_weight, nsims
69 -4886.9897428542481068 1 1 99
ITEM: NUMBER OF ATOMS
3
ITEM: BOX BOUNDS xy xz yz pp pp pp
-2.4246901549179998 4.8493803098359996 -2.4246901549179998
0.0 4.1996845828257214 0.0
0.0 3.0114506242672263 0.0
ITEM: ATOMS id type x y z
1 1 0.0 0.0 0.0
2 1 2.4246903973870149 1.3998947209524211 1.5057253121336132