ITEM: TIMESTEP energy, energy_weight, force_weight, nsims
0 -4887.3395533778839308 1 1 981
ITEM: NUMBER OF ATOMS
3
ITEM: BOX BOUNDS xy xz yz pp pp pp
-2.1468985580554501 4.2937971161109001 -2.1468985580554501
0.0 3.9639733844339574 0.0
0.0 2.8424292839086744 0.0
ITEM: ATOMS id type x y z
1 1 0.0 0.0 0.0
2 1 2.1468987727453057 1.3213243293455397 1.4212146419543372
3 1 -2.146898556925418e-07 2.6426490550884174 1.4212146419543372
ITEM: TIMESTEP energy, energy_weight, force_weight, nsims
1 -4886.8865354734223274 1 1 981
ITEM: NUMBER OF ATOMS
3
ITEM: BOX BOUNDS xy xz yz pp pp pp
-2.5246326939912156 4.3472452813101672 -2.3780472289903525
-0.1547732296825279 3.7592703186544264 -0.1465854650008632
0.0 2.6911981128426716 -0.1547732296825279
ITEM: ATOMS id type x y z
1 1 0.0 0.0 0.0
2 1 2.0321886028859786 1.1757033660678675 1.3455990564213358
3 1 -0.2095760155670281 2.4287937229040306 1.3455990564213356
ITEM: TIMESTEP energy, energy_weight, force_weight, nsims
2 -4886.9192113820338362 1 1 981
ITEM: NUMBER OF ATOMS
3
ITEM: BOX BOUNDS xy xz yz pp pp pp
-2.5183629689559846 4.3531719560528171 -2.3756340690790254
-0.1504744634741554 3.7646992578614858 -0.1427288998769592
0.0 2.6953401623671418 -0.1504744634741554
ITEM: ATOMS id type x y z
1 1 0.0 0.0 0.0
2 1 2.0388723886972571 1.1796623953934422 1.3476700811835709
3 1 -0.2040634016004246 2.434562398993887 1.3476700811835705
ITEM: TIMESTEP energy, energy_weight, force_weight, nsims
3 -4886.9507679572700456 1 1 981
ITEM: NUMBER OF ATOMS
3
ITEM: BOX BOUNDS xy xz yz pp pp pp
-2.5120809896048272 4.3590431244475081 -2.3732018765882321
-0.1461980395659062 3.7700744339739094 -0.1388791130165951
0.0 2.6994335672098498 -0.1461980395659062
ITEM: ATOMS id type x y z
1 1 0.0 0.0 0.0
2 1 2.0455221253354639 1.1835923325392022 1.3497167836049249
3 1 -0.198559990492783 2.4402840618688004 1.3497167836049249
ITEM: TIMESTEP energy, energy_weight, force_weight, nsims
4 -4886.9812226143083078 1 1 981
ITEM: NUMBER OF ATOMS
3
ITEM: BOX BOUNDS xy xz yz pp pp pp
-2.5058303671984824 4.3649164150482651 -2.370787122849074
-0.1419464346729492 3.7754369364509208 -0.1350432443494081
0.0 2.7035109470252282 -0.1419464346729492
ITEM: ATOMS id type x y z
1 1 0.0 0.0 0.0
2 1 2.0521605047645655 1.1875056356326013 1.3517554735126145
3 1 -0.1930744569147825 2.4459848661453707 1.3517554735126145
ITEM: TIMESTEP energy, energy_weight, force_weight, nsims
5 -4887.0105916798797807 1 1 981
ITEM: NUMBER OF ATOMS
3
ITEM: BOX BOUNDS xy xz yz pp pp pp
-2.4996031273742126 4.3707912877740762 -2.3683868092926681
-0.1377223362049104 3.7807915044915764 -0.1312163180815443
0.0 2.7075769689244066 -0.1377223362049104
ITEM: ATOMS id type x y z
1 1 0.0 0.0 0.0
2 1 2.0587906543503247 1.1914025407016864 1.3537884844622037
3 1 -0.1876024939504622 2.4516666275849786 1.3537884844622037
ITEM: TIMESTEP energy, energy_weight, force_weight, nsims
6 -4887.0388925691618168 1 1 981
ITEM: NUMBER OF ATOMS
3
ITEM: BOX BOUNDS xy xz yz pp pp pp
-2.4934017844084654 4.3766678765140634 -2.3660007582738563
-0.1335210957540365 3.7861400839387862 -0.1274010261346089
0.0 2.7116275393647046 -0.1335210957540365
ITEM: ATOMS id type x y z
1 1 0.0 0.0 0.0
2 1 2.0654113766064066 1.1952860205645746 1.3558137696823525
3 1 -0.1821452845008089 2.4573329676201756 1.3558137696823525
ITEM: TIMESTEP energy, energy_weight, force_weight, nsims
7 -4887.0661416088835268 1 1 981
ITEM: NUMBER OF ATOMS
3
ITEM: BOX BOUNDS xy xz yz pp pp pp
-2.4872309131115782 4.38254170831926 -2.3636334071186132
-0.1293428684405386 3.791473788614685 -0.1235975059929652
0.0 2.715658414204111 -0.1293428684405386
ITEM: ATOMS id type x y z
1 1 0.0 0.0 0.0
2 1 2.0720181417159904 1.199153035602166 1.3578292071020557
3 1 -0.1767073465083084 2.4629778845719802 1.3578292071020557
ITEM: TIMESTEP energy, energy_weight, force_weight, nsims
8 -4887.0923556700008702 1 1 981
ITEM: NUMBER OF ATOMS
3
ITEM: BOX BOUNDS xy xz yz pp pp pp
-2.4810524982057842 4.3883597548368903 -2.3612520981200009
-0.1251879166632133 3.7967559104866266 -0.1198004000857831
0.0 2.719645625800697 -0.1251879166632133
ITEM: ATOMS id type x y z
1 1 0.0 0.0 0.0
2 1 2.0785891621287647 1.2029912186054053 1.3598228129003485
3 1 -0.1712819054976566 2.4685767752180082 1.3598228129003485
ITEM: TIMESTEP energy, energy_weight, force_weight, nsims
9 -4887.1175505350174718 1 1 981
ITEM: NUMBER OF ATOMS
3
ITEM: BOX BOUNDS xy xz yz pp pp pp
-2.474928749010608 4.3942363365434574 -2.3589102474941144
-0.1210600383009577 3.8020758403262054 -0.1160185015164938
0.0 2.7236506392102648 -0.1210600383009577
ITEM: ATOMS id type x y z
1 1 0.0 0.0 0.0
2 1 2.08517844954424 1.2068284675557284 1.3618253196051324
3 1 -0.1658708620113895 2.4741873344695194 1.3618253196051324
ITEM: TIMESTEP energy, energy_weight, force_weight, nsims
10 -4887.1417433469996468 1 1 981
ITEM: NUMBER OF ATOMS
3
ITEM: BOX BOUNDS xy xz yz pp pp pp
-2.4687964373526886 4.4000567659387216 -2.3565556902610787
-0.1169506327735288 3.8073463194367006 -0.1122407470916098
0.0 2.727612634961806 -0.1169506327735288
ITEM: ATOMS id type x y z
1 1 0.0 0.0 0.0
2 1 2.0917324655467313 1.2106399965139254 1.3638063174809032
3 1 -0.160472136960699 2.4797556901492466 1.363806317480903
ITEM: TIMESTEP energy, energy_weight, force_weight, nsims
11 -4887.3454477354662231 1 1 981
ITEM: NUMBER OF ATOMS
3
ITEM: BOX BOUNDS xy xz yz pp pp pp
-2.1498884095122999 4.2997768190245998 -2.1498884095122999
0.0 3.9639814485660544 0.0
0.0 2.8424362626453164 0.0
ITEM: ATOMS id type x y z
1 1 0.0 0.0 0.0
2 1 2.1498886245011404 1.3213270173893033 1.4212181313226582
3 1 -2.149888408380694e-07 2.642654431176751 1.4212181313226582
ITEM: TIMESTEP energy, energy_weight, force_weight, nsims
12 -4887.1649505687330474 1 1 981
ITEM: NUMBER OF ATOMS
3
ITEM: BOX BOUNDS xy xz yz pp pp pp
-2.4626916864205356 4.4058784498406532 -2.3542162290194164
-0.1128642109103699 3.812602091084799 -0.108475457401119
0.0 2.7315555109238954 -0.1128642109103699
ITEM: ATOMS id type x y z
1 1 0.0 0.0 0.0
2 1 2.0982760535232261 1.2144351311530115 1.3657777554619479
3 1 -0.155089290103109 2.4853027490214178 1.3657777554619479
ITEM: TIMESTEP energy, energy_weight, force_weight, nsims
13 -4887.1871871663881847 1 1 981
ITEM: NUMBER OF ATOMS
3
ITEM: BOX BOUNDS xy xz yz pp pp pp
-2.4566152468611744 4.4116968860277073 -2.3518922091917749
-0.108804008747509 3.8178520124120086 -0.1047230376693997
0.0 2.7354880925300816 -0.108804008747509
ITEM: ATOMS id type x y z
1 1 0.0 0.0 0.0
2 1 2.1048058942394832 1.2182152058351814 1.3677440462650412
3 1 -0.1497242550729505 2.490832797829318 1.3677440462650406
ITEM: TIMESTEP energy, energy_weight, force_weight, nsims
14 -4887.2084702830293282 1 1 981
ITEM: NUMBER OF ATOMS
3
ITEM: BOX BOUNDS xy xz yz pp pp pp
-2.4505649424254262 4.4175206324660126 -2.3495841656212044
-0.1047682306023558 3.8230895845253294 -0.1009807768042215
0.0 2.7394063093970186 -0.1047682306023558
ITEM: ATOMS id type x y z
1 1 0.0 0.0 0.0
2 1 2.1113288702716555 1.2219789521042783 1.3697031546985093
3 1 -0.1443731802310692 2.4963424018186938 1.369703154698509
ITEM: TIMESTEP energy, energy_weight, force_weight, nsims
15 -4887.2288158372186899 1 1 981
ITEM: NUMBER OF ATOMS
3
ITEM: BOX BOUNDS xy xz yz pp pp pp
-2.4444990876731807 4.4232878719231241 -2.3472556622659817
-0.100751013267504 3.8282779118289808 -0.0972434254071991
0.0 2.7432776450563218 -0.100751013267504
ITEM: ATOMS id type x y z
1 1 0.0 0.0 0.0
2 1 2.1178185401746061 1.2257170030333114 1.3716388225281609
3 1 -0.1390297559246638 2.5018098955281652 1.3716388225281609
ITEM: TIMESTEP energy, energy_weight, force_weight, nsims
16 -4887.2482382509006128 1 1 981
ITEM: NUMBER OF ATOMS
3
ITEM: BOX BOUNDS xy xz yz pp pp pp
-2.4384962434989461 4.4291089284579641 -2.3449756841817982
-0.0967550049507171 3.8335016091085294 -0.0935205593171481
0.0 2.7471721906636378 -0.0967550049507171
ITEM: ATOMS id type x y z
1 1 0.0 0.0 0.0
2 1 2.1243206703889559 1.2294562394440978 1.3735860953318189
3 1 -0.1337079854299385 2.507290364713715 1.3735860953318184
ITEM: TIMESTEP energy, energy_weight, force_weight, nsims
17 -4887.2667554834793009 1 1 981
ITEM: NUMBER OF ATOMS
3
ITEM: BOX BOUNDS xy xz yz pp pp pp
-2.4324871012629159 4.4348777290729196 -2.3426798922723862
-0.0927853310921297 3.8386717075292336 -0.0898072089905299
0.0 2.751015413725844 -0.0927853310921297
ITEM: ATOMS id type x y z
1 1 0.0 0.0 0.0
2 1 2.1307884767144731 1.2331644423412898 1.375507706862922
3 1 -0.12839784890447 2.5127219340958146 1.375507706862922
ITEM: TIMESTEP energy, energy_weight, force_weight, nsims
18 -4887.2843805963350406 1 1 981
ITEM: NUMBER OF ATOMS
3
ITEM: BOX BOUNDS xy xz yz pp pp pp
-2.426526234265368 4.4406955963729189 -2.3404246255198556
-0.0888336653686376 3.8438796252215646 -0.0861016087455124
0.0 2.7548867577347296 -0.0888336653686376
ITEM: ATOMS id type x y z
1 1 0.0 0.0 0.0
2 1 2.1372716107399117 1.2368762475935489 1.3774433788673648
3 1 -0.1231022486323607 2.5181697122593786 1.3774433788673648
ITEM: TIMESTEP energy, energy_weight, force_weight, nsims
19 -4887.3011304604258386 1 1 981
ITEM: NUMBER OF ATOMS
3
ITEM: BOX BOUNDS xy xz yz pp pp pp
-2.4205664345514926 4.4464656286632112 -2.3381578581151197
-0.0849069814528403 3.8490360531809804 -0.0824085764363731
0.0 2.7587070063159658 -0.0849069814528403
ITEM: ATOMS id type x y z
1 1 0.0 0.0 0.0
2 1 2.1437204043396978 1.2405583986993716 1.3793535031579829
3 1 -0.1178212102279788 2.5235706730287686 1.3793535031579831
ITEM: TIMESTEP energy, energy_weight, force_weight, nsims
20 -4887.3170188174133274 1 1 981
ITEM: NUMBER OF ATOMS
3
ITEM: BOX BOUNDS xy xz yz pp pp pp
-2.4146199177994099 4.4522315119330482 -2.3359001764612484
-0.0809954200535449 3.8541823811227296 -0.0787197413381613
0.0 2.7625184983144218 -0.0809954200535449
ITEM: ATOMS id type x y z
1 1 0.0 0.0 0.0
2 1 2.1501613047369244 1.2442296218747249 1.3812592491572109
3 1 -0.1125497106032861 2.5289573391944594 1.3812592491572109
ITEM: TIMESTEP energy, energy_weight, force_weight, nsims
21 -4887.3320615858590371 1 1 981
ITEM: NUMBER OF ATOMS
3
ITEM: BOX BOUNDS xy xz yz pp pp pp
-2.4086800523502286 4.457949413552223 -2.3336316326512892
-0.0771104296721092 3.8592771743152108 -0.0750484196989392
0.0 2.76628355267207 -0.0771104296721092
ITEM: ATOMS id type x y z
1 1 0.0 0.0 0.0
2 1 2.1565650813542829 1.2478703812931098 1.383141776336035
3 1 -0.1072957201522895 2.5342963633499914 1.3831417763360348
ITEM: TIMESTEP energy, energy_weight, force_weight, nsims
22 -4887.3511976014920039 1 1 981
ITEM: NUMBER OF ATOMS
3
ITEM: BOX BOUNDS xy xz yz pp pp pp
-2.1528782609691497 4.3057565219382994 -2.1528782609691497
0.0 3.9640000152790126 0.0
0.0 2.8424494737140904 0.0
ITEM: ATOMS id type x y z
1 1 0.0 0.0 0.0
2 1 2.1528784762569755 1.3213332062930041 1.4212247368570452
3 1 -2.1528782598359704e-07 2.642666808986009 1.4212247368570452
ITEM: TIMESTEP energy, energy_weight, force_weight, nsims
23 -4887.3462729155962734 1 1 981
ITEM: NUMBER OF ATOMS
3
ITEM: BOX BOUNDS xy xz yz pp pp pp
-2.4027847930595581 4.4637160537669542 -2.3314040329809469
-0.0732418513602543 3.8644099194284136 -0.0713807600786111
0.0 2.7700683762346628 -0.0732418513602543
ITEM: ATOMS id type x y z
1 1 0.0 0.0 0.0
2 1 2.1629858713156849 1.2515155853156803 1.3850341881173316
3 1 -0.1020546106082882 2.5396524827524792 1.3850341881173312
ITEM: TIMESTEP energy, energy_weight, force_weight, nsims
24 -4887.3596675006810985 1 1 981
ITEM: NUMBER OF ATOMS
3
ITEM: BOX BOUNDS xy xz yz pp pp pp
-2.39691448492988 4.4694828931619828 -2.3291897163262894
-0.0693977935565122 3.8695348459075888 -0.0677247686035908
0.0 2.773844477564305 -0.0693977935565122
ITEM: ATOMS id type x y z
1 1 0.0 0.0 0.0
2 1 2.1693965323198494 1.2551459228731124 1.3869222387821525
3 1 -0.0968281240877477 2.544991129477964 1.3869222387821518
ITEM: TIMESTEP energy, energy_weight, force_weight, nsims
25 -4887.3722593548902751 1 1 981
ITEM: NUMBER OF ATOMS
3
ITEM: BOX BOUNDS xy xz yz pp pp pp
-2.3910345799425539 4.4751968373266182 -2.3269575475108258
-0.0655724715230085 3.874608390237718 -0.0640770324317281
0.0 2.7775748664487542 -0.0655724715230085
ITEM: ATOMS id type x y z
1 1 0.0 0.0 0.0
2 1 2.1757737529034187 1.2587497651641218 1.3887874332243773
3 1 -0.0916114955193545 2.5502861535505872 1.3887874332243777
ITEM: TIMESTEP energy, energy_weight, force_weight, nsims
26 -4887.3840622198874826 1 1 981
ITEM: NUMBER OF ATOMS
3
ITEM: BOX BOUNDS xy xz yz pp pp pp
-2.3851824884842872 4.4809154250491456 -2.3247429182267894
-0.0617657107684347 3.8796718084702576 -0.0604395702574978
0.0 2.7812923835428666 -0.0617657107684347
ITEM: ATOMS id type x y z
1 1 0.0 0.0 0.0
2 1 2.182143085683697 1.2623409514501418 1.3906461917714337
3 1 -0.0864101491188381 2.5555651462516812 1.3906461917714333
ITEM: TIMESTEP energy, energy_weight, force_weight, nsims
27 -4887.3950907897287835 1 1 981
ITEM: NUMBER OF ATOMS
3
ITEM: BOX BOUNDS xy xz yz pp pp pp
-2.3793565079699142 4.4866295188219558 -2.322542194296811
-0.0579835766262186 3.8847274123188886 -0.0568143136731033
0.0 2.785001561411034 -0.0579835766262186
ITEM: ATOMS id type x y z
1 1 0.0 0.0 0.0
2 1 2.1884986845848733 1.265917219635607 1.3925007807055172
3 1 -0.0812256737328305 2.560826616057065 1.3925007807055172
ITEM: TIMESTEP energy, energy_weight, force_weight, nsims
28 -4887.405358942136445 1 1 981
ITEM: NUMBER OF ATOMS
3
ITEM: BOX BOUNDS xy xz yz pp pp pp
-2.3735523643312355 4.4923435205368102 -2.3203554854923305
-0.0542214704837933 3.889775236679788 -0.0531968788389051
0.0 2.7886981416991814 -0.0542214704837933
ITEM: ATOMS id type x y z
1 1 0.0 0.0 0.0
2 1 2.1948456395309437 1.269480880658858 1.3943490708495907
3 1 -0.0760544833253697 2.5660728855371372 1.3943490708495907
ITEM: TIMESTEP energy, energy_weight, force_weight, nsims
29 -4887.4148793303245385 1 1 981
ITEM: NUMBER OF ATOMS
3
ITEM: BOX BOUNDS xy xz yz pp pp pp
-2.3677638274105979 4.4980572773499504 -2.3181791665536271
-0.0504744538654214 3.8948220441139206 -0.0495846608569708
0.0 2.7923868704485534 -0.0504744538654214
ITEM: ATOMS id type x y z
1 1 0.0 0.0 0.0
2 1 2.2011863594948196 1.2730366579445276 1.3961934352242769
3 1 -0.0708929095554684 2.5713109323039696 1.3961934352242764
ITEM: TIMESTEP energy, energy_weight, force_weight, nsims
30 -4887.4236650156760789 1 1 981
ITEM: NUMBER OF ATOMS
3
ITEM: BOX BOUNDS xy xz yz pp pp pp
-2.362004182113632 4.5037753864485072 -2.3160164739929439
-0.0467504847037975 3.8998543246806494 -0.0459877081206879
0.0 2.7960631152702638 -0.0467504847037975
ITEM: ATOMS id type x y z
1 1 0.0 0.0 0.0
2 1 2.2075178062340748 1.2765760692131736 1.3980315576351321
3 1 -0.0657466018991989 2.5765277707636778 1.3980315576351321
ITEM: TIMESTEP energy, energy_weight, force_weight, nsims
31 -4887.4317302840822778 1 1 981
ITEM: NUMBER OF ATOMS
3
ITEM: BOX BOUNDS xy xz yz pp pp pp
-2.356265205803314 4.5094886195708384 -2.3138689706631106
-0.04304163404316 3.904885575535923 -0.0423962351402034
0.0 2.7997317204860154 -0.04304163404316
ITEM: ATOMS id type x y z
1 1 0.0 0.0 0.0
2 1 2.2138381993680065 1.2801075779942086 1.3998658602430077
3 1 -0.0606147856004821 2.5817363634985552 1.3998658602430077
ITEM: TIMESTEP energy, energy_weight, force_weight, nsims
32 -4887.4390872445310379 1 1 981
ITEM: NUMBER OF ATOMS
3
ITEM: BOX BOUNDS xy xz yz pp pp pp
-2.3505169494265292 4.515153079432177 -2.3117043892561689
-0.0393522907527727 3.9098588214965364 -0.0388125601703603
0.0 2.8033507875856678 -0.0393522907527727
ITEM: ATOMS id type x y z
1 1 0.0 0.0 0.0
2 1 2.2201278706794629 1.2836099981271654 1.4016753937928337
3 1 -0.0554917406738159 2.5868965326165982 1.4016753937928337
ITEM: TIMESTEP energy, energy_weight, force_weight, nsims
33 -4887.3568036562385261 1 1 981
ITEM: NUMBER OF ATOMS
3
ITEM: BOX BOUNDS xy xz yz pp pp pp
-2.1558416535635496 4.3116833071270993 -2.1558416535635496
0.0 3.9639719185071414 0.0
0.0 2.8424297917071618 0.0
ITEM: ATOMS id type x y z
1 1 0.0 0.0 0.0
2 1 2.1558418691477148 1.3213238407033163 1.4212148958535809
3 1 -2.1558416524288098e-07 2.6426480778038246 1.4212148958535809
ITEM: TIMESTEP energy, energy_weight, force_weight, nsims
34 -4887.4457485502412057 1 1 981
ITEM: NUMBER OF ATOMS
3
ITEM: BOX BOUNDS xy xz yz pp pp pp
-2.3447900104322379 4.5208125303191702 -2.3095508289583506
-0.035685949376923 3.914831143835889 -0.0352391814738872
0.0 2.806966819409316 -0.035685949376923
ITEM: ATOMS id type x y z
1 1 0.0 0.0 0.0
2 1 2.226405380835165 1.28710060942913 1.4034834097046585
3 1 -0.0503828609482323 2.5920445850298354 1.403483409704658
ITEM: TIMESTEP energy, energy_weight, force_weight, nsims
35 -4887.4517272625930673 1 1 981
ITEM: NUMBER OF ATOMS
3
ITEM: BOX BOUNDS xy xz yz pp pp pp
-2.3391207349112877 4.526528972886962 -2.3074431529186521
-0.032035289489984 3.9198392583231682 -0.0316775819926355
0.0 2.8106037851913444 -0.032035289489984
ITEM: ATOMS id type x y z
1 1 0.0 0.0 0.0
2 1 2.2326997010878431 1.2905953107014217 1.4053018925956722
3 1 -0.0452914631121695 2.5972086581317618 1.405301892595672
ITEM: TIMESTEP energy, energy_weight, force_weight, nsims
36 -4887.4570352184682635 1 1 981
ITEM: NUMBER OF ATOMS
3
ITEM: BOX BOUNDS xy xz yz pp pp pp
-2.333436681694745 4.5321918764660306 -2.3053151472952509
-0.0284025897638665 3.9247961859320938 -0.0281215343994941
0.0 2.8141960921894786 -0.0284025897638665
ITEM: ATOMS id type x y z
1 1 0.0 0.0 0.0
2 1 2.2389623292627561 1.2940639696022252 1.4070980460947391
3 1 -0.0402071344914718 2.6023296265660014 1.4070980460947391
ITEM: TIMESTEP energy, energy_weight, force_weight, nsims
37 -4887.4616847989677809 1 1 981
ITEM: NUMBER OF ATOMS
3
ITEM: BOX BOUNDS xy xz yz pp pp pp
-2.3277474410981438 4.5378011861567434 -2.3031716354834253
-0.0247925922034125 3.9297019067468368 -0.0245758056147184
0.0 2.8177483224228896 -0.0247925922034125
ITEM: ATOMS id type x y z
1 1 0.0 0.0 0.0
2 1 2.2451892375017551 1.2975042084905089 1.4088741612114446
3 1 -0.0351354924431552 2.6074051060529144 1.4088741612114448
ITEM: TIMESTEP energy, energy_weight, force_weight, nsims
38 -4887.4656875688615402 1 1 981
ITEM: NUMBER OF ATOMS
3
ITEM: BOX BOUNDS xy xz yz pp pp pp
-2.3221098708147379 4.5434627164834858 -2.3010704730293066
-0.0211965160254683 3.9346457570583752 -0.0210393977854313
0.0 2.8213218206505952 -0.0211965160254683
ITEM: ATOMS id type x y z
1 1 0.0 0.0 0.0
2 1 2.2514321825709449 1.3009501965185324 1.4106609103252976
3 1 -0.0300793369021973 2.612499044514375 1.4106609103252976
ITEM: TIMESTEP energy, energy_weight, force_weight, nsims
39 -4887.469056317418108 1 1 981
ITEM: NUMBER OF ATOMS
3
ITEM: BOX BOUNDS xy xz yz pp pp pp
-2.316492398975782 4.549123477712838 -2.2989802975680167
-0.0176205152604303 3.9395819837409686 -0.0175121014077653
0.0 2.824883765894493 -0.0176205152604303
ITEM: ATOMS id type x y z
1 1 0.0 0.0 0.0
2 1 2.2576663968521289 1.3043836056307081 1.4124418829472461
3 1 -0.0250353181150735 2.6175778628498306 1.4124418829472465
ITEM: TIMESTEP energy, energy_weight, force_weight, nsims
40 -4887.4718016570136569 1 1 981
ITEM: NUMBER OF ATOMS
3
ITEM: BOX BOUNDS xy xz yz pp pp pp
-2.3108662432178009 4.5547350124137482 -2.2968751766148419
-0.0140595246662817 3.9444670382033368 -0.013991066602959
0.0 2.8284105473482312 -0.0140595246662817
ITEM: ATOMS id type x y z
1 1 0.0 0.0 0.0
2 1 2.2638696444897444 1.3077924522524034 1.4142052736741156
3 1 -0.0200008752937975 2.6226150612846508 1.4142052736741156
ITEM: TIMESTEP energy, energy_weight, force_weight, nsims
41 -4887.4739348803022949 1 1 981
ITEM: NUMBER OF ATOMS
3
ITEM: BOX BOUNDS xy xz yz pp pp pp
-2.3052921603546608 4.5603985747099466 -2.2948126037862102
-0.0105188068837949 3.9493903049636052 -0.0104795565684506
0.0 2.8319542829116524 -0.0105188068837949
ITEM: ATOMS id type x y z
1 1 0.0 0.0 0.0
2 1 2.270088632100709 1.3112038998996274 1.4159771414558265
3 1 -0.0149822177454221 2.627667598180183 1.4159771414558265
ITEM: TIMESTEP energy, energy_weight, force_weight, nsims
42 -4887.4754675520512139 1 1 981
ITEM: NUMBER OF ATOMS
3
ITEM: BOX BOUNDS xy xz yz pp pp pp
-2.299714635141017 4.5660036801405664 -2.2927354788248509
-0.0069977340217125 3.9542669902866448 -0.006979156316166
0.0 2.8354584743865004 -0.0069977340217125
ITEM: ATOMS id type x y z
1 1 0.0 0.0 0.0
2 1 2.2762679442853164 1.3145899979424591 1.4177292371932502
3 1 -0.0099788992857663 2.6326792583224736 1.4177292371932502
ITEM: TIMESTEP energy, energy_weight, force_weight, nsims
43 -4887.4764108288586614 1 1 981
ITEM: NUMBER OF ATOMS
3
ITEM: BOX BOUNDS xy xz yz pp pp pp
-2.2941492234795398 4.5716168953162076 -2.2906653878542707
-0.0034889680467937 3.959131541253214 -0.0034838356252689
0.0 2.838956093999506 -0.0034889680467937
ITEM: ATOMS id type x y z
1 1 0.0 0.0 0.0
2 1 2.2824477785228235 1.3179658977566236 1.4194780469997532
3 1 -0.004980106686155 2.6376766754497978 1.4194780469997532
ITEM: TIMESTEP energy, energy_weight, force_weight, nsims
44 -4887.3622676684381076 1 1 981
ITEM: NUMBER OF ATOMS
3
ITEM: BOX BOUNDS xy xz yz pp pp pp
-2.1588315050203999 4.3176630100407998 -2.1588315050203999
0.0 3.9640032328883578 0.0
0.0 2.84245140706317 0.0
ITEM: ATOMS id type x y z
1 1 0.0 0.0 0.0
2 1 2.1588317209035499 1.321334278829345 1.421225703531585
3 1 -2.1588315038840866e-07 2.6426689540590128 1.421225703531585
ITEM: TIMESTEP energy, energy_weight, force_weight, nsims
45 -4887.476777227884213 1 1 981
ITEM: NUMBER OF ATOMS
3
ITEM: BOX BOUNDS xy xz yz pp pp pp
-2.2886122253376495 4.577224450675299 -2.2886122253376495
0.0 3.963990804896076 0.0
0.0 2.842442652196009 0.0
ITEM: ATOMS id type x y z
1 1 0.0 0.0 0.0
2 1 2.2886124541988715 1.3213301361656653 1.4212213260980045
3 1 -2.2886122241330256e-07 2.6426606687304108 1.4212213260980045
ITEM: TIMESTEP energy, energy_weight, force_weight, nsims
46 -4887.476572327426311 1 1 981
ITEM: NUMBER OF ATOMS
3
ITEM: BOX BOUNDS xy xz yz pp pp pp
-2.2865669552175203 4.5863122550946828 -2.2865669552175203
0.0 3.9723198464330092 0.0034768147122315
0.0 2.8459228177650662 0.0034704592740061
ITEM: ATOMS id type x y z
1 1 0.0 0.0 0.0
2 1 2.2947732781853225 1.324684893061691 1.4229614088825333
3 1 0.0049720216918395 2.647634953371318 1.4229614088825333
ITEM: TIMESTEP energy, energy_weight, force_weight, nsims
47 -4887.4758110936547837 1 1 981
ITEM: NUMBER OF ATOMS
3
ITEM: BOX BOUNDS xy xz yz pp pp pp
-2.2845382450012766 4.5953888831321078 -2.2845382450012766
0.0 3.9806232120964626 0.0069436561539339
0.0 2.8493920962122408 0.0069273508634114
ITEM: ATOMS id type x y z
1 1 0.0 0.0 0.0
2 1 2.3009227934947725 1.3280288300528609 1.4246960481061206
3 1 0.0099278446360589 2.652594382043601 1.4246960481061202
ITEM: TIMESTEP energy, energy_weight, force_weight, nsims
48 -4887.4745031865506918 1 1 981
ITEM: NUMBER OF ATOMS
3
ITEM: BOX BOUNDS xy xz yz pp pp pp
-2.2824913595423664 4.604403993125846 -2.2824913595423664
0.0 3.9888614814092098 0.0104031550087127
0.0 2.8528223019620942 0.0103656167445565
ITEM: ATOMS id type x y z
1 1 0.0 0.0 0.0
2 1 2.3070385789513961 1.3313479639773007 1.4264111509810471
3 1 0.0148740546320831 2.65751351743191 1.4264111509810471
ITEM: TIMESTEP energy, energy_weight, force_weight, nsims
49 -4887.4726582660978239 1 1 981
ITEM: NUMBER OF ATOMS
3
ITEM: BOX BOUNDS xy xz yz pp pp pp
-2.2804830391708064 4.6134605888650838 -2.2804830391708064
0.0 3.9971167399726632 0.013852556435523
0.0 2.8562792616432362 0.013787138146218
ITEM: ATOMS id type x y z
1 1 0.0 0.0 0.0
2 1 2.313170849450235 1.3346699702376039 1.4281396308216181
3 1 0.0198067002440418 2.662446769735059 1.4281396308216181
ITEM: TIMESTEP energy, energy_weight, force_weight, nsims
50 -4887.470286400443456 1 1 981
ITEM: NUMBER OF ATOMS
3
ITEM: BOX BOUNDS xy xz yz pp pp pp
-2.2784574854033792 4.6224627527161184 -2.2784574854033792
0.0 4.0053107477376422 0.0172971886452761
0.0 2.8596927154381714 0.0171915564677496
ITEM: ATOMS id type x y z
1 1 0.0 0.0 0.0
2 1 2.3192733713561746 1.3379687090531998 1.4298463577190857
3 1 0.024731895956564 2.6673420386844442 1.4298463577190857
ITEM: TIMESTEP energy, energy_weight, force_weight, nsims
51 -4887.4673973856272369 1 1 981
ITEM: NUMBER OF ATOMS
3
ITEM: BOX BOUNDS xy xz yz pp pp pp
-2.2764490886332549 4.6314529982622902 -2.2764490886332549
0.0 4.0134791222789667 0.0207313461001332
0.0 2.8630956061096966 0.0205823851368296
ITEM: ATOMS id type x y z
1 1 0.0 0.0 0.0
2 1 2.3253639745194441 1.341256638519236 1.4315478030548483
3 1 0.029639935109591 2.6722224837597306 1.4315478030548483
ITEM: TIMESTEP energy, energy_weight, force_weight, nsims
52 -4887.4640012897971248 1 1 981
ITEM: NUMBER OF ATOMS
3
ITEM: BOX BOUNDS xy xz yz pp pp pp
-2.2744493524272978 4.6404340770695286 -2.2744493524272978
0.0 4.0216283336249923 0.0241578125313361
0.0 2.8664926401638784 0.023954618849645
ITEM: ATOMS id type x y z
1 1 0.0 0.0 0.0
2 1 2.3314468615062176 1.3445350810941481 1.4332463200819388
3 1 0.0345378631360132 2.6770932525308444 1.4332463200819392
ITEM: TIMESTEP energy, energy_weight, force_weight, nsims
53 -4887.4601070926582907 1 1 981
ITEM: NUMBER OF ATOMS
3
ITEM: BOX BOUNDS xy xz yz pp pp pp
-2.272462435383487 4.649407524329071 -2.272462435383487
0.0 4.0297486206709499 0.027573600128296
0.0 2.869883924984277 0.0273099882936905
ITEM: ATOMS id type x y z
1 1 0.0 0.0 0.0
2 1 2.3375221675467146 1.3478010715246445 1.4349419624921385
3 1 0.0394229213988698 2.6819475491463068 1.4349419624921389
ITEM: TIMESTEP energy, energy_weight, force_weight, nsims
54 -4887.4557243181304784 1 1 981
ITEM: NUMBER OF ATOMS
3
ITEM: BOX BOUNDS xy xz yz pp pp pp
-2.2704849686543631 4.658374415448889 -2.2704849686543631
0.0 4.037857004819454 0.0309843662360157
0.0 2.8732648366858232 0.0306516609429274
ITEM: ATOMS id type x y z
1 1 0.0 0.0 0.0
2 1 2.3435907896376365 1.351060811523461 1.4366324183429118
3 1 0.0442986571568899 2.6867961932959928 1.4366324183429118
ITEM: TIMESTEP energy, energy_weight, force_weight, nsims
55 -4887.3675897741452445 1 1 981
ITEM: NUMBER OF ATOMS
3
ITEM: BOX BOUNDS xy xz yz pp pp pp
-2.1617948976148003 4.3235897952296005 -2.1617948976148003
0.0 3.9639968319603546 0.0
0.0 2.8424446683084104 0.0
ITEM: ATOMS id type x y z
1 1 0.0 0.0 0.0
2 1 2.1617951137942897 1.3213321451868905 1.4212223341542052
3 1 -2.1617948964769269e-07 2.6426646867734638 1.4212223341542052
ITEM: TIMESTEP energy, energy_weight, force_weight, nsims
56 -4887.4508624901443454 1 1 981
ITEM: NUMBER OF ATOMS
3
ITEM: BOX BOUNDS xy xz yz pp pp pp
-2.2685164926660231 4.6673317081019334 -2.2685164926660231
0.0 4.0459403934334395 0.0343871617271898
0.0 2.8766401123683214 0.0339780806627152
ITEM: ATOMS id type x y z
1 1 0.0 0.0 0.0
2 1 2.3496513442734513 1.3543096775228552 1.4383200561841605
3 1 0.0491638711624598 2.6916307159105832 1.4383200561841607
ITEM: TIMESTEP energy, energy_weight, force_weight, nsims
57 -4887.4455307244554662 1 1 981
ITEM: NUMBER OF ATOMS
3
ITEM: BOX BOUNDS xy xz yz pp pp pp
-2.2665352611732015 4.6762275693563692 -2.2665352611732015
0.0 4.053957897701161 0.0377785480767688
0.0 2.8799770381480824 0.0372872026661927
ITEM: ATOMS id type x y z
1 1 0.0 0.0 0.0
2 1 2.3556770979998598 1.3575336991223963 1.4399885190740412
3 1 0.0540152101833078 2.6964241985787658 1.4399885190740412
ITEM: TIMESTEP energy, energy_weight, force_weight, nsims
58 -4887.4397370483725355 1 1 981
ITEM: NUMBER OF ATOMS
3
ITEM: BOX BOUNDS xy xz yz pp pp pp
-2.2645938222426727 4.6851714851075306 -2.2645938222426727
0.0 4.0619979359156924 0.0411668075257473
0.0 2.8833366982567346 0.0405827554313644
ITEM: ATOMS id type x y z
1 1 0.0 0.0 0.0
2 1 2.361722145023121 1.3607629704966189 1.4416683491283675
3 1 0.0588555178417364 2.701234965419073 1.4416683491283673
ITEM: TIMESTEP energy, energy_weight, force_weight, nsims
59 -4887.4334913939896979 1 1 981
ITEM: NUMBER OF ATOMS
3
ITEM: BOX BOUNDS xy xz yz pp pp pp
-2.2626318228719811 4.6940548657917588 -2.2626318228719811
0.0 4.0699785261858663 0.044544519443362
0.0 2.88665806499594 0.0438628090831951
ITEM: ATOMS id type x y z
1 1 0.0 0.0 0.0
2 1 2.3677354467346907 1.3639698427052978 1.4433290324979702
3 1 0.063687596185087 2.7060086834805692 1.4433290324979698
ITEM: TIMESTEP energy, energy_weight, force_weight, nsims
60 -4887.4268015165046108 1 1 981
ITEM: NUMBER OF ATOMS
3
ITEM: BOX BOUNDS xy xz yz pp pp pp
-2.2606880475574607 4.702929671288099 -2.2606880475574607
0.0 4.0779361752524643 0.0479155560037327
0.0 2.8899695139219902 0.0471272415994265
ITEM: ATOMS id type x y z
1 1 0.0 0.0 0.0
2 1 2.3737380695290296 1.3671664643237611 1.4449847569609953
3 1 0.0685035542016093 2.710769710928703 1.4449847569609948
ITEM: TIMESTEP energy, energy_weight, force_weight, nsims
61 -4887.4196763956163069 1 1 981
ITEM: NUMBER OF ATOMS
3
ITEM: BOX BOUNDS xy xz yz pp pp pp
-2.2587539045680791 4.7117893836407712 -2.2587539045680791
0.0 4.0858642352583701 0.0512733873189954
0.0 2.8932758067610412 0.0503717684230736
ITEM: ATOMS id type x y z
1 1 0.0 0.0 0.0
2 1 2.3797296203269847 1.370349905306886 1.4466379033805199
3 1 0.0733058587457074 2.7155143299514824 1.4466379033805204
ITEM: TIMESTEP energy, energy_weight, force_weight, nsims
62 -4887.4121247389148267 1 1 981
ITEM: NUMBER OF ATOMS
3
ITEM: BOX BOUNDS xy xz yz pp pp pp
-2.2568294457805114 4.7206478929421394 -2.2568294457805114
0.0 4.0937799403384476 0.0546272919621089
0.0 2.896576806081149 0.0536089354422267
ITEM: ATOMS id type x y z
1 1 0.0 0.0 0.0
2 1 2.3857177954692395 1.3735280013474869 1.448288403040575
3 1 0.078100651692389 2.7202519389909604 1.4482884030405745
ITEM: TIMESTEP energy, energy_weight, force_weight, nsims
63 -4887.4041537573730239 1 1 981
ITEM: NUMBER OF ATOMS
3
ITEM: BOX BOUNDS xy xz yz pp pp pp
-2.2549106851141292 4.7294987080316356 -2.2549106851141292
0.0 4.1016803719049753 0.0579753946247243
0.0 2.8998680290099626 0.0568289232401163
ITEM: ATOMS id type x y z
1 1 0.0 0.0 0.0
2 1 2.3916999087600601 1.3766981430132961 1.4499340145049813
3 1 0.0828881141574469 2.7249822288916774 1.4499340145049813
ITEM: TIMESTEP energy, energy_weight, force_weight, nsims
64 -4887.3957718864692198 1 1 981
ITEM: NUMBER OF ATOMS
3
ITEM: BOX BOUNDS xy xz yz pp pp pp
-2.253010644773811 4.7383403412899662 -2.253010644773811