ITEM: TIMESTEP energy, energy_weight, force_weight, nsims
0 -2704.7366914999997790 1 1 990
ITEM: NUMBER OF ATOMS
2
ITEM: BOX BOUNDS xy xz yz pp pp pp
0.0 3.6423022639980314 0.0699854736183283
0.0 3.5716311797708284 0.0
0.0 3.5723168548242996 0.0
ITEM: ATOMS id type x y z
1 1 0.0 0.0 0.0
2 1 1.8211511319964276 1.785815589882876 1.7861584274099998
ITEM: TIMESTEP energy, energy_weight, force_weight, nsims
1 -2704.7364558399999624 1 1 990
ITEM: NUMBER OF ATOMS
2
ITEM: BOX BOUNDS xy xz yz pp pp pp
-0.0874918441679166 3.5723158720297854 -0.0437459220839583
-0.0442849471969392 3.5720480097357248 -0.0437459220839583
0.0 3.5717734848823652 -0.0442849471969392
ITEM: ATOMS id type x y z
1 1 0.0 0.0 0.0
2 1 1.742412013931352 1.7638815312698158 1.7858867424416106
ITEM: TIMESTEP energy, energy_weight, force_weight, nsims
2 -2704.7269123400001264 1 1 990
ITEM: NUMBER OF ATOMS
2
ITEM: BOX BOUNDS xy xz yz pp pp pp
0.0 3.7735382518883226 0.1006113140833932
0.0 3.6687150078184542 0.1006113140833932
0.0 3.5695585461983654 0.0978164823821176
ITEM: ATOMS id type x y z
1 1 0.0 0.0 0.0
2 1 1.8867691259453896 1.8343575039104216 1.784779273100345
ITEM: TIMESTEP energy, energy_weight, force_weight, nsims
3 -2704.7383974999997918 1 1 990
ITEM: NUMBER OF ATOMS
2
ITEM: BOX BOUNDS xy xz yz pp pp pp
-0.0131246699795024 3.5723157377124184 0.0
0.0 3.5723168548242996 -0.0131246699795024
0.0 3.5722916276454462 0.0
ITEM: ATOMS id type x y z
1 1 0.0 0.0 0.0
2 1 1.7795955338623268 1.78615842741 1.7861458138185764
ITEM: TIMESTEP energy, energy_weight, force_weight, nsims
4 -2704.7044707000000018 1 1 990
ITEM: NUMBER OF ATOMS
2
ITEM: BOX BOUNDS xy xz yz pp pp pp
-0.4024392268403726 3.57231708980415 -0.2012196134201863
-0.2128918050872147 3.5666454908333436 -0.2012196134201863
0.0 3.5602861031957156 -0.2128918050872147
ITEM: ATOMS id type x y z
1 1 0.0 0.0 0.0
2 1 1.5849389314837998 1.6768768428750864 1.7801430516000044
ITEM: TIMESTEP energy, energy_weight, force_weight, nsims
5 -2704.7326722600000722 1 1 990
ITEM: NUMBER OF ATOMS
2
ITEM: BOX BOUNDS pp pp pp
0.0 3.5723168548242996
0.0 3.5723168548242996
0.0 3.5016278489010362
ITEM: ATOMS id type x y z
1 1 0.0 0.0 0.0
2 1 1.78615842741 1.78615842741 1.7508139244500004
ITEM: TIMESTEP energy, energy_weight, force_weight, nsims
6 -2704.7309955199998512 1 1 990
ITEM: NUMBER OF ATOMS
2
ITEM: BOX BOUNDS xy xz yz pp pp pp
-0.1443492755158816 3.5723175780040508 0.0
0.0 3.5723168548242996 -0.1443492755158816
0.0 3.569399972652934 0.0
ITEM: ATOMS id type x y z
1 1 0.0 0.0 0.0
2 1 1.7139841512423084 1.7861584274099998 1.7846999863246176
ITEM: TIMESTEP energy, energy_weight, force_weight, nsims
7 -2704.7148878399998466 1 1 990
ITEM: NUMBER OF ATOMS
2
ITEM: BOX BOUNDS pp pp pp
0.0 3.5723168548242996
0.0 3.5723168548242996
0.0 3.7473710976612544
ITEM: ATOMS id type x y z
1 1 0.0 0.0 0.0
2 1 1.78615842741 1.78615842741 1.87368554883
ITEM: TIMESTEP energy, energy_weight, force_weight, nsims
8 -2704.724834220000048 1 1 990
ITEM: NUMBER OF ATOMS
2
ITEM: BOX BOUNDS pp pp pp
0.0 3.5723168548242996
0.0 3.4612320899066834
0.0 3.5723168548242996
ITEM: ATOMS id type x y z
1 1 0.0 0.0 0.0
2 1 1.78615842741 1.7306160449500002 1.78615842741
ITEM: TIMESTEP energy, energy_weight, force_weight, nsims
9 -2704.7384388599998602 1 1 990
ITEM: NUMBER OF ATOMS
2
ITEM: BOX BOUNDS xy xz yz pp pp pp
0.0 3.5810658971777914 0.0043738521819492
0.0 3.5766840154253404 0.0043738521819492
0.0 3.5723128441294132 0.0043685002270804
ITEM: ATOMS id type x y z
1 1 0.0 0.0 0.0
2 1 1.7905329485915966 1.7883420077153678 1.7861564220674012
ITEM: TIMESTEP energy, energy_weight, force_weight, nsims
10 -2704.7253200599998308 1 1 990
ITEM: NUMBER OF ATOMS
2
ITEM: BOX BOUNDS xy xz yz pp pp pp
0.0 3.7647883391751954 0.1924708049498792
0.0 3.5671287549758542 0.0
0.0 3.5723168548242996 0.0
ITEM: ATOMS id type x y z
1 1 0.0 0.0 0.0
2 1 1.88239416958418 1.7835643774846888 1.78615842741
ITEM: TIMESTEP energy, energy_weight, force_weight, nsims
11 -2704.6960390399999596 1 1 990
ITEM: NUMBER OF ATOMS
2
ITEM: BOX BOUNDS pp pp pp
0.0 3.5723168548242996
0.0 3.3743640609479204
0.0 3.5723168548242996
ITEM: ATOMS id type x y z
1 1 0.0 0.0 0.0
2 1 1.78615842741 1.68718203047 1.78615842741
ITEM: TIMESTEP energy, energy_weight, force_weight, nsims
12 -2704.7362227799999346 1 1 990
ITEM: NUMBER OF ATOMS
2
ITEM: BOX BOUNDS xy xz yz pp pp pp
-0.0787362259287398 3.57231590130493 0.0
0.0 3.5723168548242996 -0.0787362259287398
0.0 3.5714480964228712 0.0
ITEM: ATOMS id type x y z
1 1 0.0 0.0 0.0
2 1 1.7467898376885218 1.78615842741 1.785724048211872
ITEM: TIMESTEP energy, energy_weight, force_weight, nsims
13 -2704.7275569600001290 1 1 990
ITEM: NUMBER OF ATOMS
2
ITEM: BOX BOUNDS xy xz yz pp pp pp
0.0 3.7472867680412514 0.0
0.0 3.5723168548242996 0.1749695684723163
0.0 3.5680296837953366 0.0
ITEM: ATOMS id type x y z
1 1 0.0 0.0 0.0
2 1 1.8736433840203784 1.7861584274099998 1.7840148418974326
ITEM: TIMESTEP energy, energy_weight, force_weight, nsims
14 -2704.7182775400001448 1 1 990
ITEM: NUMBER OF ATOMS
2
ITEM: BOX BOUNDS xy xz yz pp pp pp
-0.2974480559365616 3.5723171203671048 -0.1487240279682808
-0.1550501906970279 3.5692199108450594 -0.1487240279682808
0.0 3.5658505591706492 -0.1550501906970279
ITEM: ATOMS id type x y z
1 1 0.0 0.0 0.0
2 1 1.6374345322197528 1.7070848600786876 1.782925279590204
ITEM: TIMESTEP energy, energy_weight, force_weight, nsims
15 -2704.1556267199998728 1 1 990
ITEM: NUMBER OF ATOMS
2
ITEM: BOX BOUNDS xy xz yz pp pp pp
-0.4470268723967944 3.3557776093994343 -0.2235134361983972
-0.2389312475418437 3.3483257170689602 -0.2235134361983972
0.0 3.3397899584455111 -0.2389312475418437
ITEM: ATOMS id type x y z
1 1 0.0 0.0 0.0
2 1 1.4543753684996648 1.554697234761789 1.6698949792208548
ITEM: TIMESTEP energy, energy_weight, force_weight, nsims
16 -2704.5135568000000604 1 1 990
ITEM: NUMBER OF ATOMS
2
ITEM: BOX BOUNDS pp pp pp
0.0 3.3511207647422996
0.0 3.3511207647422996
0.0 3.5723081396983504
ITEM: ATOMS id type x y z
1 1 0.0 0.0 0.0
2 1 1.67556038237 1.67556038237 1.78615406985
ITEM: TIMESTEP energy, energy_weight, force_weight, nsims
17 -2704.723516380000092 1 1 990
ITEM: NUMBER OF ATOMS
2
ITEM: BOX BOUNDS xy xz yz pp pp pp
0.0 3.5723168548242996 0.0
-0.2055873334686672 3.5723183958589426 0.0
0.0 3.5663977021231736 -0.2055873334686672
ITEM: ATOMS id type x y z
1 1 0.0 0.0 0.0
2 1 1.78615842741 1.6833655311919458 1.7831988510582058
ITEM: TIMESTEP energy, energy_weight, force_weight, nsims
18 -2704.5330729600000268 1 1 990
ITEM: NUMBER OF ATOMS
2
ITEM: BOX BOUNDS pp pp pp
0.0 3.3604342843246995
0.0 3.3604342843246995
0.0 3.572306305517087
ITEM: ATOMS id type x y z
1 1 0.0 0.0 0.0
2 1 1.6802171421600004 1.6802171421600004 1.7861531527600004
ITEM: TIMESTEP energy, energy_weight, force_weight, nsims
19 -2704.7376234799999112 1 1 990
ITEM: NUMBER OF ATOMS
2
ITEM: BOX BOUNDS xy xz yz pp pp pp
0.0 3.5723168548242996 0.0
0.0 3.620433729704113 0.0
0.0 3.5719916307332906 0.0481180166746258
ITEM: ATOMS id type x y z
1 1 0.0 0.0 0.0
2 1 1.7861584274099998 1.810216864855137 1.7859958153696844
ITEM: TIMESTEP energy, energy_weight, force_weight, nsims
20 -2704.7089522400001442 1 1 990
ITEM: NUMBER OF ATOMS
2
ITEM: BOX BOUNDS pp pp pp
0.0 3.5723168548242996
0.0 3.5723168548242996
0.0 3.7681655540731872
ITEM: ATOMS id type x y z
1 1 0.0 0.0 0.0
2 1 1.78615842741 1.78615842741 1.88408277704
ITEM: TIMESTEP energy, energy_weight, force_weight, nsims
21 -2704.7363962600002196 1 1 990
ITEM: NUMBER OF ATOMS
2
ITEM: BOX BOUNDS pp pp pp
0.0 3.6287271495677
0.0 3.5723076998462214
0.0 3.5723076998462214
ITEM: ATOMS id type x y z
1 1 0.0 0.0 0.0
2 1 1.81436357478 1.78615384992 1.78615384992
ITEM: TIMESTEP energy, energy_weight, force_weight, nsims
22 -2704.735145619999912 1 1 990
ITEM: NUMBER OF ATOMS
2
ITEM: BOX BOUNDS pp pp pp
0.0 3.6416390744433
0.0 3.5723241163003464
0.0 3.5723241163003464
ITEM: ATOMS id type x y z
1 1 0.0 0.0 0.0
2 1 1.82081953722 1.78616205815 1.78616205815
ITEM: TIMESTEP energy, energy_weight, force_weight, nsims
23 -2704.7076982200001112 1 1 990
ITEM: NUMBER OF ATOMS
2
ITEM: BOX BOUNDS pp pp pp
0.0 3.5723168548242996
0.0 3.5723168548242996
0.0 3.7723094416247834
ITEM: ATOMS id type x y z
1 1 0.0 0.0 0.0
2 1 1.78615842741 1.78615842741 1.88615472081
ITEM: TIMESTEP energy, energy_weight, force_weight, nsims
24 -2704.7421640799998386 1 1 990
ITEM: NUMBER OF ATOMS
2
ITEM: BOX BOUNDS pp pp pp
0.0 3.4385937640019999
0.0 3.7012266785089448
0.0 3.572324114077802
ITEM: ATOMS id type x y z
1 1 0.0 0.0 0.0
2 1 1.7192968820000004 1.85061333925 1.7861620570400004
ITEM: TIMESTEP energy, energy_weight, force_weight, nsims
25 -2704.7326801600002 1 1 990
ITEM: NUMBER OF ATOMS
2
ITEM: BOX BOUNDS xy xz yz pp pp pp
0.0 3.6991701313956732 0.0
0.0 3.5723168548242996 0.1268543991221094
0.0 3.5700626958742024 0.0
ITEM: ATOMS id type x y z
1 1 0.0 0.0 0.0
2 1 1.8495850656931522 1.7861584274099998 1.7850313479325802
ITEM: TIMESTEP energy, energy_weight, force_weight, nsims
26 -2704.6594332800000302 1 1 990
ITEM: NUMBER OF ATOMS
2
ITEM: BOX BOUNDS xy xz yz pp pp pp
0.0 3.854787165114502 0.0937408483664526
0.0 3.7574817794148126 0.0937408483664525
0.0 3.6649683135395614 0.0913745726123299
ITEM: ATOMS id type x y z
1 1 0.0 0.0 0.0
2 1 1.927393582552713 1.8787408897029826 1.832484156765466
ITEM: TIMESTEP energy, energy_weight, force_weight, nsims
27 -2704.7275569600001290 1 1 990
ITEM: NUMBER OF ATOMS
2
ITEM: BOX BOUNDS xy xz yz pp pp pp
0.0 3.5723168548242996 0.0
-0.1749695684723163 3.5723171995689352 0.0
0.0 3.5680296837953366 -0.1749695684723163
ITEM: ATOMS id type x y z
1 1 0.0 0.0 0.0
2 1 1.7861584274099998 1.6986738155506394 1.7840148419001154
ITEM: TIMESTEP energy, energy_weight, force_weight, nsims
28 -2704.6293276000001242 1 1 990
ITEM: NUMBER OF ATOMS
2
ITEM: BOX BOUNDS xy xz yz pp pp pp
0.0 3.9048330811096462 0.1102715570251841
0.0 3.7896584242414568 0.1102715570251841
0.0 3.6810840342985682 0.1070190521219304
ITEM: ATOMS id type x y z
1 1 0.0 0.0 0.0
2 1 1.9524165405548636 1.8948292121207676 1.8405420171493224
ITEM: TIMESTEP energy, energy_weight, force_weight, nsims
29 -2704.722254719999910 1 1 990
ITEM: NUMBER OF ATOMS
2
ITEM: BOX BOUNDS xy xz yz pp pp pp
0.0 3.7866575731915916 0.2143424266549787
0.0 3.565878970227475 0.0
0.0 3.5723168548242996 0.0
ITEM: ATOMS id type x y z
1 1 0.0 0.0 0.0
2 1 1.8933287865940096 1.7829394851120558 1.78615842741
ITEM: TIMESTEP energy, energy_weight, force_weight, nsims
30 -2704.7376249799999642 1 1 990
ITEM: NUMBER OF ATOMS
2
ITEM: BOX BOUNDS pp pp pp
0.0 3.5723168548242996
0.0 3.6114694475531742
0.0 3.5723168548242996
ITEM: ATOMS id type x y z
1 1 0.0 0.0 0.0
2 1 1.78615842741 1.8057347237800002 1.78615842741
ITEM: TIMESTEP energy, energy_weight, force_weight, nsims
31 -2704.703706339999826 1 1 990
ITEM: NUMBER OF ATOMS
2
ITEM: BOX BOUNDS pp pp pp
0.0 3.4837325833417002
0.0 3.4837325833417002
0.0 3.572316935470913
ITEM: ATOMS id type x y z
1 1 0.0 0.0 0.0
2 1 1.7418662916700004 1.7418662916700004 1.78615846774
ITEM: TIMESTEP energy, energy_weight, force_weight, nsims
32 -2704.7125819600000796 1 1 990
ITEM: NUMBER OF ATOMS
2
ITEM: BOX BOUNDS pp pp pp
0.0 3.5723168548242996
0.0 3.7557017405667046
0.0 3.5723168548242996
ITEM: ATOMS id type x y z
1 1 0.0 0.0 0.0
2 1 1.78615842741 1.8778508702800002 1.78615842741
ITEM: TIMESTEP energy, energy_weight, force_weight, nsims
33 -2704.2104031799999576 1 1 990
ITEM: NUMBER OF ATOMS
2
ITEM: BOX BOUNDS xy xz yz pp pp pp
-0.4272165060998988 3.3650925461592851 -0.2136082530499494
-0.2276266725505547 3.3583060251331669 -0.2136082530499494
0.0 3.3505828532345374 -0.2276266725505547
ITEM: ATOMS id type x y z
1 1 0.0 0.0 0.0
2 1 1.4689380200299136 1.5653396762915412 1.6752914266175204
ITEM: TIMESTEP energy, energy_weight, force_weight, nsims
34 -2704.7247309399999722 1 1 990
ITEM: NUMBER OF ATOMS
2
ITEM: BOX BOUNDS xy xz yz pp pp pp
0.0 3.7691548607936572 0.1968384469343908
0.0 3.5668892871151448 0.0
0.0 3.5723168548242996 0.0
ITEM: ATOMS id type x y z
1 1 0.0 0.0 0.0
2 1 1.8845774303992536 1.783444643559867 1.7861584274099998
ITEM: TIMESTEP energy, energy_weight, force_weight, nsims
35 -2704.7237427599998228 1 1 990
ITEM: NUMBER OF ATOMS
2
ITEM: BOX BOUNDS pp pp pp
0.0 3.4566916259177996
0.0 3.5722937639633684
0.0 3.5722937639633684
ITEM: ATOMS id type x y z
1 1 0.0 0.0 0.0
2 1 1.72834581296 1.78614688198 1.78614688198
ITEM: TIMESTEP energy, energy_weight, force_weight, nsims
36 -2704.7364641399999528 1 1 990
ITEM: NUMBER OF ATOMS
2
ITEM: BOX BOUNDS xy xz yz pp pp pp
-0.0743644633640441 3.5723174803315678 -0.0743644633640441
0.0 3.5715433788309304 0.0
0.0 3.5723168548242996 0.0
ITEM: ATOMS id type x y z
1 1 0.0 0.0 0.0
2 1 1.748976508487585 1.7857716894193688 1.78615842741
ITEM: TIMESTEP energy, energy_weight, force_weight, nsims
37 -2704.733611860000110 1 1 990
ITEM: NUMBER OF ATOMS
2
ITEM: BOX BOUNDS xy xz yz pp pp pp
0.0 3.703548520833258 0.065616551081393
0.0 3.6361349129840478 0.065616551081393
0.0 3.5711317117564958 0.0644221699579553
ITEM: ATOMS id type x y z
1 1 0.0 0.0 0.0
2 1 1.8517742604187618 1.8180674564941176 1.7855658558803046
ITEM: TIMESTEP energy, energy_weight, force_weight, nsims
38 -2704.7338065600001756 1 1 990
ITEM: NUMBER OF ATOMS
2
ITEM: BOX BOUNDS xy xz yz pp pp pp
0.0 3.5723168548242996 0.0
0.0 3.6860440487299972 0.0
0.0 3.5705051126361638 0.1137281539141826
ITEM: ATOMS id type x y z
1 1 0.0 0.0 0.0
2 1 1.78615842741 1.8430220243687876 1.7852525563217526
ITEM: TIMESTEP energy, energy_weight, force_weight, nsims
39 -2704.7231554199997846 1 1 990
ITEM: NUMBER OF ATOMS
2
ITEM: BOX BOUNDS pp pp pp
0.0 3.5723168548242996
0.0 3.5723168548242996
0.0 3.7138627655630026
ITEM: ATOMS id type x y z
1 1 0.0 0.0 0.0
2 1 1.78615842741 1.78615842741 1.85693138278
ITEM: TIMESTEP energy, energy_weight, force_weight, nsims
40 -2704.7348133800001052 1 1 990
ITEM: NUMBER OF ATOMS
2
ITEM: BOX BOUNDS xy xz yz pp pp pp
0.0 3.6729253615757164 0.1006078982251535
0.0 3.570900462036728 0.0
0.0 3.5723168548242996 0.0
ITEM: ATOMS id type x y z
1 1 0.0 0.0 0.0
2 1 1.8364626807867618 1.7854502310172978 1.7861584274099998
ITEM: TIMESTEP energy, energy_weight, force_weight, nsims
41 -2704.7427703399998792 1 1 990
ITEM: NUMBER OF ATOMS
2
ITEM: BOX BOUNDS pp pp pp
0.0 3.7096383509398
0.0 3.4294716241234222
0.0 3.5723038295496576
ITEM: ATOMS id type x y z
1 1 0.0 0.0 0.0
2 1 1.8548191754700002 1.71473581206 1.78615191477
ITEM: TIMESTEP energy, energy_weight, force_weight, nsims
42 -2704.7380799600000502 1 1 990
ITEM: NUMBER OF ATOMS
2
ITEM: BOX BOUNDS xy xz yz pp pp pp
0.0 3.5985074774285134 0.008728733235777
0.0 3.5897468558914554 0.008728733235777
0.0 3.5810287865263978 0.0087074830011016
ITEM: ATOMS id type x y z
1 1 0.0 0.0 0.0
2 1 1.799253738717656 1.7948734279491188 1.7905143932665812
ITEM: TIMESTEP energy, energy_weight, force_weight, nsims
43 -2704.7381119199999376 1 1 990
ITEM: NUMBER OF ATOMS
2
ITEM: BOX BOUNDS pp pp pp
0.0 3.5723168548242996
0.0 3.5723168548242996
0.0 3.5591707287985464
ITEM: ATOMS id type x y z
1 1 0.0 0.0 0.0
2 1 1.78615842741 1.78615842741 1.7795853644
ITEM: TIMESTEP energy, energy_weight, force_weight, nsims
44 -2704.7214242400000330 1 1 990
ITEM: NUMBER OF ATOMS
2
ITEM: BOX BOUNDS pp pp pp
0.0 3.4476426949599
0.0 3.5722956642388706
0.0 3.5722956642388706
ITEM: ATOMS id type x y z
1 1 0.0 0.0 0.0
2 1 1.72382134748 1.78614783212 1.78614783212
ITEM: TIMESTEP energy, energy_weight, force_weight, nsims
45 -2704.4702787199998966 1 1 990
ITEM: NUMBER OF ATOMS
2
ITEM: BOX BOUNDS xy xz yz pp pp pp
0.0 4.1014285455916548 0.1749396832250754
0.0 3.9144317689139592 0.1749396832250754
0.0 3.7437468520839882 0.1669636435324499
ITEM: ATOMS id type x y z
1 1 0.0 0.0 0.0
2 1 2.050714272791514 1.9572158844528624 1.8718734260380568
ITEM: TIMESTEP energy, energy_weight, force_weight, nsims
46 -2704.7364200600000004 1 1 990
ITEM: NUMBER OF ATOMS
2
ITEM: BOX BOUNDS pp pp pp
0.0 3.5327343965990998
0.0 3.5723222182473898
0.0 3.5723222182473898
ITEM: ATOMS id type x y z
1 1 0.0 0.0 0.0
2 1 1.7663671983 1.78616110912 1.78616110912
ITEM: TIMESTEP energy, energy_weight, force_weight, nsims
47 -2704.692430279999826 1 1 990
ITEM: NUMBER OF ATOMS
2
ITEM: BOX BOUNDS pp pp pp
0.0 3.4702385634921998
0.0 3.4702385634921998
0.0 3.5723052201216322
ITEM: ATOMS id type x y z
1 1 0.0 0.0 0.0
2 1 1.7351192817500004 1.7351192817500004 1.78615261006
ITEM: TIMESTEP energy, energy_weight, force_weight, nsims
48 -2704.7465157000001454 1 1 990
ITEM: NUMBER OF ATOMS
2
ITEM: BOX BOUNDS pp pp pp
0.0 3.7473686887934998
0.0 3.3882246210282197
0.0 3.5723141078652004
ITEM: ATOMS id type x y z
1 1 0.0 0.0 0.0
2 1 1.8736843444 1.69411231051 1.78615705393
ITEM: TIMESTEP energy, energy_weight, force_weight, nsims
49 -2704.7338390800000526 1 1 990
ITEM: NUMBER OF ATOMS
2
ITEM: BOX BOUNDS pp pp pp
0.0 3.5415716566573994
0.0 3.5415716566573994
0.0 3.5723231233521556
ITEM: ATOMS id type x y z
1 1 0.0 0.0 0.0
2 1 1.77078582833 1.77078582833 1.78616156168
ITEM: TIMESTEP energy, energy_weight, force_weight, nsims
50 -2704.7326722600000722 1 1 990
ITEM: NUMBER OF ATOMS
2
ITEM: BOX BOUNDS pp pp pp
0.0 3.5723168548242996
0.0 3.5016278489010362
0.0 3.5723168548242996
ITEM: ATOMS id type x y z
1 1 0.0 0.0 0.0
2 1 1.78615842741 1.7508139244500004 1.78615842741
ITEM: TIMESTEP energy, energy_weight, force_weight, nsims
51 -2704.7264629400001468 1 1 990
ITEM: NUMBER OF ATOMS
2
ITEM: BOX BOUNDS xy xz yz pp pp pp
-0.1837206012645238 3.5723164659597272 0.0
0.0 3.5723168548242996 -0.1837206012645238
0.0 3.5675890561607564 0.0
ITEM: ATOMS id type x y z
1 1 0.0 0.0 0.0
2 1 1.6942979323433614 1.7861584274099998 1.783794528075914
ITEM: TIMESTEP energy, energy_weight, force_weight, nsims
52 -2704.7369053799998256 1 1 990
ITEM: NUMBER OF ATOMS
2
ITEM: BOX BOUNDS xy xz yz pp pp pp
-0.0656135486998513 3.5723174757286382 -0.0656135486998513
0.0 3.5717148555873326 0.0
0.0 3.5723168548242996 0.0
ITEM: ATOMS id type x y z
1 1 0.0 0.0 0.0
2 1 1.753351963513556 1.785857427792813 1.78615842741
ITEM: TIMESTEP energy, energy_weight, force_weight, nsims
53 -2704.733057160000044 1 1 990
ITEM: NUMBER OF ATOMS
2
ITEM: BOX BOUNDS pp pp pp
0.0 3.5723168548242996
0.0 3.6587562057604832
0.0 3.5723168548242996
ITEM: ATOMS id type x y z
1 1 0.0 0.0 0.0
2 1 1.78615842741 1.82937810288 1.78615842741
ITEM: TIMESTEP energy, energy_weight, force_weight, nsims
54 -2704.7162342400001762 1 1 990
ITEM: NUMBER OF ATOMS
2
ITEM: BOX BOUNDS pp pp pp
0.0 3.5723168548242996
0.0 3.5723168548242996
0.0 3.4294849100178597
ITEM: ATOMS id type x y z
1 1 0.0 0.0 0.0
2 1 1.78615842741 1.78615842741 1.7147424550100002
ITEM: TIMESTEP energy, energy_weight, force_weight, nsims
55 -2704.7047993999999562 1 1 990
ITEM: NUMBER OF ATOMS
2
ITEM: BOX BOUNDS xy xz yz pp pp pp
0.0 3.9135090651161008 0.1705966727406986
0.0 3.7308753041071632 0.1705966727406986
0.0 3.5645316830123512 0.1626353491715349
ITEM: ATOMS id type x y z
1 1 0.0 0.0 0.0
2 1 1.9567545325624824 1.8654376520578072 1.7822658415102128
ITEM: TIMESTEP energy, energy_weight, force_weight, nsims
56 -2704.7326533599998584 1 1 990
ITEM: NUMBER OF ATOMS
2
ITEM: BOX BOUNDS xy xz yz pp pp pp
-0.0440123812881192 3.5503547026348756 -0.0220061906440596
-0.0221430171440122 3.5502865014101204 -0.0220061906440596
0.0 3.5502174481130974 -0.0221430171440122
ITEM: ATOMS id type x y z
1 1 0.0 0.0 0.0
2 1 1.7531711606688692 1.7640717421285164 1.7751087240519828
ITEM: TIMESTEP energy, energy_weight, force_weight, nsims
57 -2704.7321978400000262 1 1 990
ITEM: NUMBER OF ATOMS
2
ITEM: BOX BOUNDS xy xz yz pp pp pp
-0.1574709006746516 3.5723162848736032 -0.0787354503373258
-0.0804903676487059 3.5714484971833658 -0.0787354503373258
0.0 3.5705413691412536 -0.0804903676487059
ITEM: ATOMS id type x y z
1 1 0.0 0.0 0.0
2 1 1.7074226920959946 1.7454790647637712 1.785270684566987
ITEM: TIMESTEP energy, energy_weight, force_weight, nsims
58 -2704.7502146599999834 1 1 990
ITEM: NUMBER OF ATOMS
2
ITEM: BOX BOUNDS pp pp pp
0.0 3.3604342843246995
0.0 3.7722991915143878
0.0 3.572306305517087
ITEM: ATOMS id type x y z
1 1 0.0 0.0 0.0
2 1 1.6802171421600004 1.8861495957600002 1.7861531527600004
ITEM: TIMESTEP energy, energy_weight, force_weight, nsims
59 -2704.7162342400001762 1 1 990
ITEM: NUMBER OF ATOMS
2
ITEM: BOX BOUNDS pp pp pp
0.0 3.4294919153192001
0.0 3.572323394608414
0.0 3.572323394608414
ITEM: ATOMS id type x y z
1 1 0.0 0.0 0.0
2 1 1.71474595766 1.7861616973000004 1.7861616973000004
ITEM: TIMESTEP energy, energy_weight, force_weight, nsims
60 -2704.7113943200001814 1 1 990
ITEM: NUMBER OF ATOMS
2
ITEM: BOX BOUNDS pp pp pp
0.0 3.7598572718698998
0.0 3.5723118312917572
0.0 3.5723118312917572
ITEM: ATOMS id type x y z
1 1 0.0 0.0 0.0
2 1 1.87992863593 1.78615591565 1.78615591565
ITEM: TIMESTEP energy, energy_weight, force_weight, nsims
61 -2704.7384286599999542 1 1 990
ITEM: NUMBER OF ATOMS
2
ITEM: BOX BOUNDS pp pp pp
0.0 3.5723168548242996
0.0 3.5723168548242996
0.0 3.5897711949769708
ITEM: ATOMS id type x y z
1 1 0.0 0.0 0.0
2 1 1.78615842741 1.78615842741 1.79488559749
ITEM: TIMESTEP energy, energy_weight, force_weight, nsims
62 -2704.7257120399999622 1 1 990
ITEM: NUMBER OF ATOMS
2
ITEM: BOX BOUNDS pp pp pp
0.0 3.5194520476492
0.0 3.5194520476492
0.0 3.572335334117177
ITEM: ATOMS id type x y z
1 1 0.0 0.0 0.0
2 1 1.7597260238200002 1.7597260238200002 1.78616766706
ITEM: TIMESTEP energy, energy_weight, force_weight, nsims
63 -2704.7348626399998466 1 1 990
ITEM: NUMBER OF ATOMS
2
ITEM: BOX BOUNDS pp pp pp
0.0 3.6071367178084994
0.0 3.6071367178084994
0.0 3.5723134199347762
ITEM: ATOMS id type x y z
1 1 0.0 0.0 0.0
2 1 1.8035683589 1.8035683589 1.78615670997
ITEM: TIMESTEP energy, energy_weight, force_weight, nsims
64 -2704.7051237599998786 1 1 990
ITEM: NUMBER OF ATOMS
2
ITEM: BOX BOUNDS pp pp pp
0.0 3.7806010200307002
0.0 3.5723314904382288
0.0 3.5723314904382288
ITEM: ATOMS id type x y z
1 1 0.0 0.0 0.0
2 1 1.8903005100200002 1.78616574522 1.78616574522
ITEM: TIMESTEP energy, energy_weight, force_weight, nsims
65 -2704.7459989600001792 1 1 990
ITEM: NUMBER OF ATOMS
2
ITEM: BOX BOUNDS pp pp pp
0.0 3.7431881885263998
0.0 3.3928257740803285
0.0 3.5723041613437926
ITEM: ATOMS id type x y z
1 1 0.0 0.0 0.0
2 1 1.87159409426 1.69641288704 1.78615208067
ITEM: TIMESTEP energy, energy_weight, force_weight, nsims
66 -2704.7378520600000230 1 1 990
ITEM: NUMBER OF ATOMS
2
ITEM: BOX BOUNDS pp pp pp
0.0 3.5723168548242996
0.0 3.6071397995251272
0.0 3.5723168548242996
ITEM: ATOMS id type x y z
1 1 0.0 0.0 0.0
2 1 1.78615842741 1.80356989976 1.78615842741
ITEM: TIMESTEP energy, energy_weight, force_weight, nsims
67 -2704.7322785199999090 1 1 990
ITEM: NUMBER OF ATOMS
2
ITEM: BOX BOUNDS xy xz yz pp pp pp
0.0 3.5723168548242996 0.0
0.0 3.7035407100527014 0.0
0.0 3.5699049292124384 0.1312247742766906
ITEM: ATOMS id type x y z
1 1 0.0 0.0 0.0
2 1 1.7861584274099998 1.851770355026882 1.7849524646067316
ITEM: TIMESTEP energy, energy_weight, force_weight, nsims
68 -2704.6898422200001734 1 1 990
ITEM: NUMBER OF ATOMS
2
ITEM: BOX BOUNDS pp pp pp
0.0 3.5723168548242996
0.0 3.3604427421646706
0.0 3.5723168548242996
ITEM: ATOMS id type x y z
1 1 0.0 0.0 0.0
2 1 1.78615842741 1.68022137108 1.78615842741
ITEM: TIMESTEP energy, energy_weight, force_weight, nsims
69 -2704.7351154200000566 1 1 990
ITEM: NUMBER OF ATOMS
2
ITEM: BOX BOUNDS xy xz yz pp pp pp
-0.1137361882426724 3.572316405112447 -0.0568680941213362
-0.0577807053086229 3.5718637317381702 -0.0568680941213362
0.0 3.5713963527170384 -0.0577807053086229
ITEM: ATOMS id type x y z
1 1 0.0 0.0 0.0
2 1 1.7292901084358322 1.7570415132157336 1.7856981763594946
ITEM: TIMESTEP energy, energy_weight, force_weight, nsims
70 -2704.6226192200001606 1 1 990
ITEM: NUMBER OF ATOMS
2
ITEM: BOX BOUNDS pp pp pp
0.0 3.7598572718698998
0.0 3.7598572718698998
0.0 3.5723118312917572
ITEM: ATOMS id type x y z
1 1 0.0 0.0 0.0
2 1 1.87992863593 1.87992863593 1.78615591565
ITEM: TIMESTEP energy, energy_weight, force_weight, nsims
71 -2704.7030337999999574 1 1 990
ITEM: NUMBER OF ATOMS
2
ITEM: BOX BOUNDS xy xz yz pp pp pp
0.0 3.922260674400622 0.1749712949585994
0.0 3.7346316869955234 0.1749712949585994
0.0 3.5641388275708096 0.1666012018864306
ITEM: ATOMS id type x y z
1 1 0.0 0.0 0.0
2 1 1.9611303372046732 1.8673158435019148 1.7820694137893688
ITEM: TIMESTEP energy, energy_weight, force_weight, nsims
72 -2704.7228913399999328 1 1 990
ITEM: NUMBER OF ATOMS
2
ITEM: BOX BOUNDS xy xz yz pp pp pp
-0.2099614311148785 3.5723178311812306 0.0
0.0 3.5723168548242996 -0.2099614311148785
0.0 3.566142297275806 0.0
ITEM: ATOMS id type x y z
1 1 0.0 0.0 0.0
2 1 1.6811782000374538 1.7861584274099998 1.7830711486424402
ITEM: TIMESTEP energy, energy_weight, force_weight, nsims
73 -2704.7213194800001476 1 1 990
ITEM: NUMBER OF ATOMS
2
ITEM: BOX BOUNDS xy xz yz pp pp pp
-0.2711989985971084 3.5723152709015222 -0.1355994992985542
-0.1408481507670433 3.5697407707712054 -0.1355994992985542
0.0 3.5669610271114128 -0.1408481507670433
ITEM: ATOMS id type x y z
1 1 0.0 0.0 0.0
2 1 1.650558136148477 1.7144463099982066 1.783480513551676
ITEM: TIMESTEP energy, energy_weight, force_weight, nsims
74 -2704.7118475199999922 1 1 990
ITEM: NUMBER OF ATOMS
2
ITEM: BOX BOUNDS pp pp pp
0.0 3.5723168548242996
0.0 3.4157886471964632
0.0 3.5723168548242996
ITEM: ATOMS id type x y z
1 1 0.0 0.0 0.0
2 1 1.78615842741 1.7078943236 1.78615842741
ITEM: TIMESTEP energy, energy_weight, force_weight, nsims
75 -2704.7297950799998034 1 1 990
ITEM: NUMBER OF ATOMS
2
ITEM: BOX BOUNDS pp pp pp
0.0 3.5723168548242996
0.0 3.5723168548242996
0.0 3.6800507865320906
ITEM: ATOMS id type x y z
1 1 0.0 0.0 0.0
2 1 1.78615842741 1.78615842741 1.84002539327
ITEM: TIMESTEP energy, energy_weight, force_weight, nsims
76 -2704.7325455999998668 1 1 990
ITEM: NUMBER OF ATOMS
2
ITEM: BOX BOUNDS pp pp pp
0.0 3.5371265677657996
0.0 3.5371265677657996
0.0 3.5722926801025268
ITEM: ATOMS id type x y z
1 1 0.0 0.0 0.0
2 1 1.7685632838800004 1.7685632838800004 1.78614634005
ITEM: TIMESTEP energy, energy_weight, force_weight, nsims
77 -2704.7275569600001290 1 1 990
ITEM: NUMBER OF ATOMS
2
ITEM: BOX BOUNDS xy xz yz pp pp pp
-0.1749695684723163 3.5723171995689352 0.0
0.0 3.5723168548242996 -0.1749695684723163
0.0 3.5680296837953366 0.0
ITEM: ATOMS id type x y z
1 1 0.0 0.0 0.0
2 1 1.6986738155506394 1.7861584274099998 1.7840148419001154
ITEM: TIMESTEP energy, energy_weight, force_weight, nsims
78 -2704.7305421800001568 1 1 990
ITEM: NUMBER OF ATOMS
2
ITEM: BOX BOUNDS xy xz yz pp pp pp
0.0 3.7210422414603808 0.1487261705275166
0.0 3.5692187712222738 0.0
0.0 3.5723168548242996 0.0
ITEM: ATOMS id type x y z
1 1 0.0 0.0 0.0
2 1 1.8605211207296296 1.784609385610599 1.78615842741
ITEM: TIMESTEP energy, energy_weight, force_weight, nsims
79 -2704.5424393399998736 1 1 990
ITEM: NUMBER OF ATOMS
2
ITEM: BOX BOUNDS pp pp pp
0.0 3.3650910441158995
0.0 3.3650910441158995
0.0 3.5723167157036012
ITEM: ATOMS id type x y z
1 1 0.0 0.0 0.0
2 1 1.6825455220600004 1.6825455220600004 1.78615835785
ITEM: TIMESTEP energy, energy_weight, force_weight, nsims
80 -2704.7372916399999668 1 1 990
ITEM: NUMBER OF ATOMS
2
ITEM: BOX BOUNDS xy xz yz pp pp pp
-0.0568623386165668 3.5723156879357392 0.0
0.0 3.5723168548242996 -0.0568623386165668
0.0 3.5718631061000714 0.0
ITEM: ATOMS id type x y z
1 1 0.0 0.0 0.0
2 1 1.7577266746608764 1.7861584274099998 1.7859315530513472
ITEM: TIMESTEP energy, energy_weight, force_weight, nsims
81 -2704.7264629400001468 1 1 990
ITEM: NUMBER OF ATOMS
2
ITEM: BOX BOUNDS xy xz yz pp pp pp
0.0 3.5723168548242996 0.0
0.0 3.7560370672242508 0.0
0.0 3.5675890561607564 0.1837206012645238
ITEM: ATOMS id type x y z
1 1 0.0 0.0 0.0
2 1 1.7861584274099998 1.8780185336111008 1.783794528079405
ITEM: TIMESTEP energy, energy_weight, force_weight, nsims
82 -2704.7382870199999162 1 1 990
ITEM: NUMBER OF ATOMS
2
ITEM: BOX BOUNDS xy xz yz pp pp pp
0.0 3.5723168548242996 0.0
0.0 3.594185350418953 0.0
0.0 3.5722487858450266 0.0218696213283247
ITEM: ATOMS id type x y z
1 1 0.0 0.0 0.0
2 1 1.78615842741 1.7970926752131662 1.7861243929261806
ITEM: TIMESTEP energy, energy_weight, force_weight, nsims
83 -2704.6449128200001724 1 1 990
ITEM: NUMBER OF ATOMS
2
ITEM: BOX BOUNDS xy xz yz pp pp pp
0.0 3.8798266489329874 0.1020276889198765
0.0 3.773588976538636 0.1020276889198765
0.0 3.6730147575642746 0.0992339599285043
ITEM: ATOMS id type x y z
1 1 0.0 0.0 0.0
2 1 1.9399133244677376 1.8867944882705284 1.8365073787833154
ITEM: TIMESTEP energy, energy_weight, force_weight, nsims
84 -2704.7276728799997728 1 1 990
ITEM: NUMBER OF ATOMS
2
ITEM: BOX BOUNDS pp pp pp
0.0 3.5238442188158996
0.0 3.5238442188158996
0.0 3.5722900291361808
ITEM: ATOMS id type x y z
1 1 0.0 0.0 0.0
2 1 1.76192210941 1.76192210941 1.78614501457
ITEM: TIMESTEP energy, energy_weight, force_weight, nsims
85 -2704.7326801600002 1 1 990
ITEM: NUMBER OF ATOMS
2
ITEM: BOX BOUNDS xy xz yz pp pp pp
0.0 3.5723168548242996 0.0
-0.1268543991221094 3.5723157322735638 0.0
0.0 3.5700626958742024 -0.1268543991221094
ITEM: ATOMS id type x y z
1 1 0.0 0.0 0.0
2 1 1.7861584274099998 1.7227306665790332 1.7850313479405272
ITEM: TIMESTEP energy, energy_weight, force_weight, nsims
86 -2704.7051237599998786 1 1 990
ITEM: NUMBER OF ATOMS
2
ITEM: BOX BOUNDS pp pp pp
0.0 3.5723168548242996
0.0 3.5723168548242996
0.0 3.780586499777411
ITEM: ATOMS id type x y z
1 1 0.0 0.0 0.0
2 1 1.78615842741 1.78615842741 1.89029324989
ITEM: TIMESTEP energy, energy_weight, force_weight, nsims
87 -2704.7360098600001948 1 1 990
ITEM: NUMBER OF ATOMS
2
ITEM: BOX BOUNDS pp pp pp
0.0 3.5723168548242996
0.0 3.5723168548242996
0.0 3.6330390967226034
ITEM: ATOMS id type x y z
1 1 0.0 0.0 0.0
2 1 1.78615842741 1.78615842741 1.8165195483600002
ITEM: TIMESTEP energy, energy_weight, force_weight, nsims
88 -2704.7385139799998798 1 1 990
ITEM: NUMBER OF ATOMS
2
ITEM: BOX BOUNDS pp pp pp
0.0 3.5810482794327996
0.0 3.5723105216309836
0.0 3.5723105216309836
ITEM: ATOMS id type x y z
1 1 0.0 0.0 0.0
2 1 1.79052413972 1.78615526082 1.78615526082
ITEM: TIMESTEP energy, energy_weight, force_weight, nsims