ITEM: TIMESTEP energy, energy_weight, force_weight, nsims
0 -2704.0873718799998642 1 1 99
ITEM: NUMBER OF ATOMS
2
ITEM: BOX BOUNDS pp pp pp
0.0 3.3230214528204001
0.0 3.3230214528204001
0.0 3.3230214528204001
ITEM: ATOMS id type x y z
1 1 0.0 0.0 0.0
2 1 1.66151072641 1.66151072641 1.66151072641
ITEM: TIMESTEP energy, energy_weight, force_weight, nsims
1 -2703.2189846999999648 1 1 99
ITEM: NUMBER OF ATOMS
2
ITEM: BOX BOUNDS pp pp pp
0.0 4.0538152336893996
0.0 4.0538152336893996
0.0 4.0538152336893996
ITEM: ATOMS id type x y z
1 1 0.0 0.0 0.0
2 1 2.02690761684 2.02690761684 2.02690761684
ITEM: TIMESTEP energy, energy_weight, force_weight, nsims
2 -2704.3287897999998678 1 1 99
ITEM: NUMBER OF ATOMS
2
ITEM: BOX BOUNDS pp pp pp
0.0 3.8053135975589996
0.0 3.8053135975589996
0.0 3.8053135975589996
ITEM: ATOMS id type x y z
1 1 0.0 0.0 0.0
2 1 1.90265679878 1.90265679878 1.90265679878
ITEM: TIMESTEP energy, energy_weight, force_weight, nsims
3 -2703.7150990400000412 1 1 99
ITEM: NUMBER OF ATOMS
2
ITEM: BOX BOUNDS pp pp pp
0.0 3.9562878666986996
0.0 3.9562878666986996
0.0 3.9562878666986996
ITEM: ATOMS id type x y z
1 1 0.0 0.0 0.0
2 1 1.97814393335 1.97814393335 1.97814393335
ITEM: TIMESTEP energy, energy_weight, force_weight, nsims
4 -2704.6170127599998524 1 1 99
ITEM: NUMBER OF ATOMS
2
ITEM: BOX BOUNDS pp pp pp
0.0 3.4612425502592
0.0 3.4612425502592
0.0 3.4612425502592
ITEM: ATOMS id type x y z
1 1 0.0 0.0 0.0
2 1 1.7306212751300002 1.7306212751300002 1.7306212751300002
ITEM: TIMESTEP energy, energy_weight, force_weight, nsims
5 -2704.6796718999999030 1 1 99
ITEM: NUMBER OF ATOMS
2
ITEM: BOX BOUNDS pp pp pp
0.0 3.4948982232955998
0.0 3.4948982232955998
0.0 3.4948982232955998
ITEM: ATOMS id type x y z
1 1 0.0 0.0 0.0
2 1 1.74744911165 1.74744911165 1.74744911165
ITEM: TIMESTEP energy, energy_weight, force_weight, nsims
6 -2703.2708521200001996 1 1 99
ITEM: NUMBER OF ATOMS
2
ITEM: BOX BOUNDS pp pp pp
0.0 4.0441842077576
0.0 4.0441842077576
0.0 4.0441842077576
ITEM: ATOMS id type x y z
1 1 0.0 0.0 0.0
2 1 2.0220921038799999 2.0220921038799999 2.0220921038799999
ITEM: TIMESTEP energy, energy_weight, force_weight, nsims
7 -2700.2308451399999286 1 1 99
ITEM: NUMBER OF ATOMS
2
ITEM: BOX BOUNDS pp pp pp
0.0 2.9887931023519996
0.0 2.9887931023519996
0.0 2.9887931023519996
ITEM: ATOMS id type x y z
1 1 0.0 0.0 0.0
2 1 1.49439655118 1.49439655118 1.49439655118
ITEM: TIMESTEP energy, energy_weight, force_weight, nsims
8 -2704.7155091999998150 1 1 99
ITEM: NUMBER OF ATOMS
2
ITEM: BOX BOUNDS pp pp pp
0.0 3.6265575228467998
0.0 3.6265575228467998
0.0 3.6265575228467998
ITEM: ATOMS id type x y z
1 1 0.0 0.0 0.0
2 1 1.8132787614200002 1.8132787614200002 1.8132787614200002
ITEM: TIMESTEP energy, energy_weight, force_weight, nsims
9 -2703.523103099999844 1 1 99
ITEM: NUMBER OF ATOMS
2
ITEM: BOX BOUNDS pp pp pp
0.0 3.9956057362994
0.0 3.9956057362994
0.0 3.9956057362994
ITEM: ATOMS id type x y z
1 1 0.0 0.0 0.0
2 1 1.99780286815 1.99780286815 1.99780286815
ITEM: TIMESTEP energy, energy_weight, force_weight, nsims
10 -2704.5855159200000344 1 1 99
ITEM: NUMBER OF ATOMS
2
ITEM: BOX BOUNDS pp pp pp
0.0 3.7117550599357996
0.0 3.7117550599357996
0.0 3.7117550599357996
ITEM: ATOMS id type x y z
1 1 0.0 0.0 0.0
2 1 1.8558775299700002 1.8558775299700002 1.8558775299700002
ITEM: TIMESTEP energy, energy_weight, force_weight, nsims
11 -2703.3222746599999484 1 1 99
ITEM: NUMBER OF ATOMS
2
ITEM: BOX BOUNDS pp pp pp
0.0 4.0345002641008998
0.0 4.0345002641008998
0.0 4.0345002641008998
ITEM: ATOMS id type x y z
1 1 0.0 0.0 0.0
2 1 2.01725013205 2.01725013205 2.01725013205
ITEM: TIMESTEP energy, energy_weight, force_weight, nsims
12 -2704.3944495000000644 1 1 99
ITEM: NUMBER OF ATOMS
2
ITEM: BOX BOUNDS pp pp pp
0.0 3.7847286025728994
0.0 3.7847286025728994
0.0 3.7847286025728994
ITEM: ATOMS id type x y z
1 1 0.0 0.0 0.0
2 1 1.89236430129 1.89236430129 1.89236430129
ITEM: TIMESTEP energy, energy_weight, force_weight, nsims
13 -2703.8073168999999324 1 1 99
ITEM: NUMBER OF ATOMS
2
ITEM: BOX BOUNDS pp pp pp
0.0 3.9364966375861
0.0 3.9364966375861
0.0 3.9364966375861
ITEM: ATOMS id type x y z
1 1 0.0 0.0 0.0
2 1 1.96824831879 1.96824831879 1.96824831879
ITEM: TIMESTEP energy, energy_weight, force_weight, nsims
14 -2704.2222019599998930 1 1 99
ITEM: NUMBER OF ATOMS
2
ITEM: BOX BOUNDS pp pp pp
0.0 3.8359529602760998
0.0 3.8359529602760998
0.0 3.8359529602760998
ITEM: ATOMS id type x y z
1 1 0.0 0.0 0.0
2 1 1.9179764801400002 1.9179764801400002 1.9179764801400002
ITEM: TIMESTEP energy, energy_weight, force_weight, nsims
15 -2700.7096312399999078 1 1 99
ITEM: NUMBER OF ATOMS
2
ITEM: BOX BOUNDS pp pp pp
0.0 3.0148286230027996
0.0 3.0148286230027996
0.0 3.0148286230027996
ITEM: ATOMS id type x y z
1 1 0.0 0.0 0.0
2 1 1.5074143115 1.5074143115 1.5074143115
ITEM: TIMESTEP energy, energy_weight, force_weight, nsims
16 -2704.6930588599998374 1 1 99
ITEM: NUMBER OF ATOMS
2
ITEM: BOX BOUNDS pp pp pp
0.0 3.6480421191561994
0.0 3.6480421191561994
0.0 3.6480421191561994
ITEM: ATOMS id type x y z
1 1 0.0 0.0 0.0
2 1 1.82402105958 1.82402105958 1.82402105958
ITEM: TIMESTEP energy, energy_weight, force_weight, nsims
17 -2703.7037265200001456 1 1 99
ITEM: NUMBER OF ATOMS
2
ITEM: BOX BOUNDS pp pp pp
0.0 3.2637006832075
0.0 3.2637006832075
0.0 3.2637006832075
ITEM: ATOMS id type x y z
1 1 0.0 0.0 0.0
2 1 1.6318503416000002 1.6318503416000002 1.6318503416000002
ITEM: TIMESTEP energy, energy_weight, force_weight, nsims
18 -2704.0194150000002082 1 1 99
ITEM: NUMBER OF ATOMS
2
ITEM: BOX BOUNDS pp pp pp
0.0 3.3112737178925995
0.0 3.3112737178925995
0.0 3.3112737178925995
ITEM: ATOMS id type x y z
1 1 0.0 0.0 0.0
2 1 1.65563685895 1.65563685895 1.65563685895
ITEM: TIMESTEP energy, energy_weight, force_weight, nsims
19 -2704.2110240000001796 1 1 99
ITEM: NUMBER OF ATOMS
2
ITEM: BOX BOUNDS pp pp pp
0.0 3.3464640049510997
0.0 3.3464640049510997
0.0 3.3464640049510997
ITEM: ATOMS id type x y z
1 1 0.0 0.0 0.0
2 1 1.67323200248 1.67323200248 1.67323200248
ITEM: TIMESTEP energy, energy_weight, force_weight, nsims
20 -2703.3732324200000224 1 1 99
ITEM: NUMBER OF ATOMS
2
ITEM: BOX BOUNDS pp pp pp
0.0 4.0248163204441996
0.0 4.0248163204441996
0.0 4.0248163204441996
ITEM: ATOMS id type x y z
1 1 0.0 0.0 0.0
2 1 2.0124081602200001 2.0124081602200001 2.0124081602200001
ITEM: TIMESTEP energy, energy_weight, force_weight, nsims
21 -2704.0663886399997864 1 1 99
ITEM: NUMBER OF ATOMS
2
ITEM: BOX BOUNDS pp pp pp
0.0 3.8764879375494998
0.0 3.8764879375494998
0.0 3.8764879375494998
ITEM: ATOMS id type x y z
1 1 0.0 0.0 0.0
2 1 1.93824396877 1.93824396877 1.93824396877
ITEM: TIMESTEP energy, energy_weight, force_weight, nsims
22 -2704.4131082399999286 1 1 99
ITEM: NUMBER OF ATOMS
2
ITEM: BOX BOUNDS pp pp pp
0.0 3.3928199319635
0.0 3.3928199319635
0.0 3.3928199319635
ITEM: ATOMS id type x y z
1 1 0.0 0.0 0.0
2 1 1.69640996598 1.69640996598 1.69640996598
ITEM: TIMESTEP energy, energy_weight, force_weight, nsims
23 -2703.5178237199997968 1 1 99
ITEM: NUMBER OF ATOMS
2
ITEM: BOX BOUNDS pp pp pp
0.0 3.2396760361028996
0.0 3.2396760361028996
0.0 3.2396760361028996
ITEM: ATOMS id type x y z
1 1 0.0 0.0 0.0
2 1 1.6198380180500002 1.6198380180500002 1.6198380180500002
ITEM: TIMESTEP energy, energy_weight, force_weight, nsims
24 -2701.734574900000098 1 1 99
ITEM: NUMBER OF ATOMS
2
ITEM: BOX BOUNDS pp pp pp
0.0 3.0789649055815995
0.0 3.0789649055815995
0.0 3.0789649055815995
ITEM: ATOMS id type x y z
1 1 0.0 0.0 0.0
2 1 1.53948245279 1.53948245279 1.53948245279
ITEM: TIMESTEP energy, energy_weight, force_weight, nsims
25 -2701.5474338399999396 1 1 99
ITEM: NUMBER OF ATOMS
2
ITEM: BOX BOUNDS pp pp pp
0.0 3.0662117338806998
0.0 3.0662117338806998
0.0 3.0662117338806998
ITEM: ATOMS id type x y z
1 1 0.0 0.0 0.0
2 1 1.53310586694 1.53310586694 1.53310586694
ITEM: TIMESTEP energy, energy_weight, force_weight, nsims
26 -2704.6276722200000222 1 1 99
ITEM: NUMBER OF ATOMS
2
ITEM: BOX BOUNDS pp pp pp
0.0 3.6906408877006998
0.0 3.6906408877006998
0.0 3.6906408877006998
ITEM: ATOMS id type x y z
1 1 0.0 0.0 0.0
2 1 1.84532044385 1.84532044385 1.84532044385
ITEM: TIMESTEP energy, energy_weight, force_weight, nsims
27 -2703.7615436999999476 1 1 99
ITEM: NUMBER OF ATOMS
2
ITEM: BOX BOUNDS pp pp pp
0.0 3.9463922521423998
0.0 3.9463922521423998
0.0 3.9463922521423998
ITEM: ATOMS id type x y z
1 1 0.0 0.0 0.0
2 1 1.97319612607 1.97319612607 1.97319612607
ITEM: TIMESTEP energy, energy_weight, force_weight, nsims
28 -2704.5375441800001682 1 1 99
ITEM: NUMBER OF ATOMS
2
ITEM: BOX BOUNDS pp pp pp
0.0 3.7327633967210994
0.0 3.7327633967210994
0.0 3.7327633967210994
ITEM: ATOMS id type x y z
1 1 0.0 0.0 0.0
2 1 1.86638169836 1.86638169836 1.86638169836
ITEM: TIMESTEP energy, energy_weight, force_weight, nsims
29 -2702.960762220000106 1 1 99
ITEM: NUMBER OF ATOMS
2
ITEM: BOX BOUNDS pp pp pp
0.0 3.1788206524679001
0.0 3.1788206524679001
0.0 3.1788206524679001
ITEM: ATOMS id type x y z
1 1 0.0 0.0 0.0
2 1 1.58941032623 1.58941032623 1.58941032623
ITEM: TIMESTEP energy, energy_weight, force_weight, nsims
30 -2703.4736680800001524 1 1 99
ITEM: NUMBER OF ATOMS
2
ITEM: BOX BOUNDS pp pp pp
0.0 4.0053425976809995
0.0 4.0053425976809995
0.0 4.0053425976809995
ITEM: ATOMS id type x y z
1 1 0.0 0.0 0.0
2 1 2.0026712988400002 2.0026712988400002 2.0026712988400002
ITEM: TIMESTEP energy, energy_weight, force_weight, nsims
31 -2702.4045404799999232 1 1 99
ITEM: NUMBER OF ATOMS
2
ITEM: BOX BOUNDS pp pp pp
0.0 3.1292896619614998
0.0 3.1292896619614998
0.0 3.1292896619614998
ITEM: ATOMS id type x y z
1 1 0.0 0.0 0.0
2 1 1.5646448309800002 1.5646448309800002 1.5646448309800002
ITEM: TIMESTEP energy, energy_weight, force_weight, nsims
32 -2704.6791981400001532 1 1 99
ITEM: NUMBER OF ATOMS
2
ITEM: BOX BOUNDS pp pp pp
0.0 3.6587314995859996
0.0 3.6587314995859996
0.0 3.6587314995859996
ITEM: ATOMS id type x y z
1 1 0.0 0.0 0.0
2 1 1.82936574979 1.82936574979 1.82936574979
ITEM: TIMESTEP energy, energy_weight, force_weight, nsims
33 -2704.6636483000002046 1 1 99
ITEM: NUMBER OF ATOMS
2
ITEM: BOX BOUNDS pp pp pp
0.0 3.6694208800157996
0.0 3.6694208800157996
0.0 3.6694208800157996
ITEM: ATOMS id type x y z
1 1 0.0 0.0 0.0
2 1 1.8347104400100002 1.8347104400100002 1.8347104400100002
ITEM: TIMESTEP energy, energy_weight, force_weight, nsims
34 -2704.6614802399999462 1 1 99
ITEM: NUMBER OF ATOMS
2
ITEM: BOX BOUNDS pp pp pp
0.0 3.4837325833417002
0.0 3.4837325833417002
0.0 3.4837325833417002
ITEM: ATOMS id type x y z
1 1 0.0 0.0 0.0
2 1 1.7418662916700002 1.7418662916700002 1.7418662916700002
ITEM: TIMESTEP energy, energy_weight, force_weight, nsims
35 -2703.0835853600001428 1 1 99
ITEM: NUMBER OF ATOMS
2
ITEM: BOX BOUNDS pp pp pp
0.0 3.1910975646447
0.0 3.1910975646447
0.0 3.1910975646447
ITEM: ATOMS id type x y z
1 1 0.0 0.0 0.0
2 1 1.5955487823200002 1.5955487823200002 1.5955487823200002
ITEM: TIMESTEP energy, energy_weight, force_weight, nsims
36 -2704.6464559800001554 1 1 99
ITEM: NUMBER OF ATOMS
2
ITEM: BOX BOUNDS pp pp pp
0.0 3.6800573427206996
0.0 3.6800573427206996
0.0 3.6800573427206996
ITEM: ATOMS id type x y z
1 1 0.0 0.0 0.0
2 1 1.84002867136 1.84002867136 1.84002867136
ITEM: TIMESTEP energy, energy_weight, force_weight, nsims
37 -2704.7384599600000002 1 1 99
ITEM: NUMBER OF ATOMS
2
ITEM: BOX BOUNDS pp pp pp
0.0 3.5723168548242996
0.0 3.5723168548242996
0.0 3.5723168548242996
ITEM: ATOMS id type x y z
1 1 0.0 0.0 0.0
2 1 1.78615842741 1.78615842741 1.78615842741
ITEM: TIMESTEP energy, energy_weight, force_weight, nsims
38 -2704.6952723600002174 1 1 99
ITEM: NUMBER OF ATOMS
2
ITEM: BOX BOUNDS pp pp pp
0.0 3.5060638632494996
0.0 3.5060638632494996
0.0 3.5060638632494996
ITEM: ATOMS id type x y z
1 1 0.0 0.0 0.0
2 1 1.75303193162 1.75303193162 1.75303193162
ITEM: TIMESTEP energy, energy_weight, force_weight, nsims
39 -2704.4841129000001274 1 1 99
ITEM: NUMBER OF ATOMS
2
ITEM: BOX BOUNDS pp pp pp
0.0 3.7536129803316998
0.0 3.7536129803316998
0.0 3.7536129803316998
ITEM: ATOMS id type x y z
1 1 0.0 0.0 0.0
2 1 1.87680649017 1.87680649017 1.87680649017
ITEM: TIMESTEP energy, energy_weight, force_weight, nsims
40 -2703.4173546000001808 1 1 99
ITEM: NUMBER OF ATOMS
2
ITEM: BOX BOUNDS pp pp pp
0.0 3.2276107948256998
0.0 3.2276107948256998
0.0 3.2276107948256998
ITEM: ATOMS id type x y z
1 1 0.0 0.0 0.0
2 1 1.61380539741 1.61380539741 1.61380539741
ITEM: TIMESTEP energy, energy_weight, force_weight, nsims
41 -2703.66800800000010 1 1 99
ITEM: NUMBER OF ATOMS
2
ITEM: BOX BOUNDS pp pp pp
0.0 3.9661305635301
0.0 3.9661305635301
0.0 3.9661305635301
ITEM: ATOMS id type x y z
1 1 0.0 0.0 0.0
2 1 1.98306528177 1.98306528177 1.98306528177
ITEM: TIMESTEP energy, energy_weight, force_weight, nsims
42 -2702.8317006600000242 1 1 99
ITEM: NUMBER OF ATOMS
2
ITEM: BOX BOUNDS pp pp pp
0.0 3.1664908225661996
0.0 3.1664908225661996
0.0 3.1664908225661996
ITEM: ATOMS id type x y z
1 1 0.0 0.0 0.0
2 1 1.5832454112800002 1.5832454112800002 1.5832454112800002
ITEM: TIMESTEP energy, energy_weight, force_weight, nsims
43 -2704.3679162600001292 1 1 99
ITEM: NUMBER OF ATOMS
2
ITEM: BOX BOUNDS pp pp pp
0.0 3.3812838679352999
0.0 3.3812838679352999
0.0 3.3812838679352999
ITEM: ATOMS id type x y z
1 1 0.0 0.0 0.0
2 1 1.6906419339700002 1.6906419339700002 1.6906419339700002
ITEM: TIMESTEP energy, energy_weight, force_weight, nsims
44 -2704.7239972000002126 1 1 99
ITEM: NUMBER OF ATOMS
2
ITEM: BOX BOUNDS pp pp pp
0.0 3.6158152246921
0.0 3.6158152246921
0.0 3.6158152246921
ITEM: ATOMS id type x y z
1 1 0.0 0.0 0.0
2 1 1.80790761235 1.80790761235 1.80790761235
ITEM: TIMESTEP energy, energy_weight, force_weight, nsims
45 -2700.4755759999998190 1 1 99
ITEM: NUMBER OF ATOMS
2
ITEM: BOX BOUNDS pp pp pp
0.0 3.0018637804022998
0.0 3.0018637804022998
0.0 3.0018637804022998
ITEM: ATOMS id type x y z
1 1 0.0 0.0 0.0
2 1 1.5009318902 1.5009318902 1.5009318902
ITEM: TIMESTEP energy, energy_weight, force_weight, nsims
46 -2704.7189919600000394 1 1 99
ITEM: NUMBER OF ATOMS
2
ITEM: BOX BOUNDS pp pp pp
0.0 3.5282893077075
0.0 3.5282893077075
0.0 3.5282893077075
ITEM: ATOMS id type x y z
1 1 0.0 0.0 0.0
2 1 1.7641446538500002 1.7641446538500002 1.7641446538500002
ITEM: TIMESTEP energy, energy_weight, force_weight, nsims
47 -2704.7083547000002 1 1 99
ITEM: NUMBER OF ATOMS
2
ITEM: BOX BOUNDS pp pp pp
0.0 3.5172295032033998
0.0 3.5172295032033998
0.0 3.5172295032033998
ITEM: ATOMS id type x y z
1 1 0.0 0.0 0.0
2 1 1.7586147516 1.7586147516 1.7586147516
ITEM: TIMESTEP energy, energy_weight, force_weight, nsims
48 -2704.146144700000150 1 1 99
ITEM: NUMBER OF ATOMS
2
ITEM: BOX BOUNDS pp pp pp
0.0 3.8562733666376996
0.0 3.8562733666376996
0.0 3.8562733666376996
ITEM: ATOMS id type x y z
1 1 0.0 0.0 0.0
2 1 1.92813668332 1.92813668332 1.92813668332
ITEM: TIMESTEP energy, energy_weight, force_weight, nsims
49 -2703.1666911399997844 1 1 99
ITEM: NUMBER OF ATOMS
2
ITEM: BOX BOUNDS pp pp pp
0.0 4.0634462596212
0.0 4.0634462596212
0.0 4.0634462596212
ITEM: ATOMS id type x y z
1 1 0.0 0.0 0.0
2 1 2.03172312981 2.03172312981 2.03172312981
ITEM: TIMESTEP energy, energy_weight, force_weight, nsims
50 -2704.6406194400001368 1 1 99
ITEM: NUMBER OF ATOMS
2
ITEM: BOX BOUNDS pp pp pp
0.0 3.4725140256628998
0.0 3.4725140256628998
0.0 3.4725140256628998
ITEM: ATOMS id type x y z
1 1 0.0 0.0 0.0
2 1 1.73625701283 1.73625701283 1.73625701283
ITEM: TIMESTEP energy, energy_weight, force_weight, nsims
51 -2704.1511957799998526 1 1 99
ITEM: NUMBER OF ATOMS
2
ITEM: BOX BOUNDS pp pp pp
0.0 3.3347691877481998
0.0 3.3347691877481998
0.0 3.3347691877481998
ITEM: ATOMS id type x y z
1 1 0.0 0.0 0.0
2 1 1.66738459387 1.66738459387 1.66738459387
ITEM: TIMESTEP energy, energy_weight, force_weight, nsims
52 -2703.620296260000032 1 1 99
ITEM: NUMBER OF ATOMS
2
ITEM: BOX BOUNDS pp pp pp
0.0 3.9759732603614996
0.0 3.9759732603614996
0.0 3.9759732603614996
ITEM: ATOMS id type x y z
1 1 0.0 0.0 0.0
2 1 1.98798663018 1.98798663018 1.98798663018
ITEM: TIMESTEP energy, energy_weight, force_weight, nsims
53 -2703.2004565799998092 1 1 99
ITEM: NUMBER OF ATOMS
2
ITEM: BOX BOUNDS pp pp pp
0.0 3.2033215590965996
0.0 3.2033215590965996
0.0 3.2033215590965996
ITEM: ATOMS id type x y z
1 1 0.0 0.0 0.0
2 1 1.60166077955 1.60166077955 1.60166077955
ITEM: TIMESTEP energy, energy_weight, force_weight, nsims
54 -2704.3192512999999054 1 1 99
ITEM: NUMBER OF ATOMS
2
ITEM: BOX BOUNDS pp pp pp
0.0 3.3697478039070994
0.0 3.3697478039070994
0.0 3.3697478039070994
ITEM: ATOMS id type x y z
1 1 0.0 0.0 0.0
2 1 1.6848739019500002 1.6848739019500002 1.6848739019500002
ITEM: TIMESTEP energy, energy_weight, force_weight, nsims
55 -2704.7352353000001132 1 1 99
ITEM: NUMBER OF ATOMS
2
ITEM: BOX BOUNDS pp pp pp
0.0 3.5941189574830998
0.0 3.5941189574830998
0.0 3.5941189574830998
ITEM: ATOMS id type x y z
1 1 0.0 0.0 0.0
2 1 1.79705947874 1.79705947874 1.79705947874
ITEM: TIMESTEP energy, energy_weight, force_weight, nsims
56 -2704.5622349599998416 1 1 99
ITEM: NUMBER OF ATOMS
2
ITEM: BOX BOUNDS pp pp pp
0.0 3.7222856871908996
0.0 3.7222856871908996
0.0 3.7222856871908996
ITEM: ATOMS id type x y z
1 1 0.0 0.0 0.0
2 1 1.8611428436 1.8611428436 1.8611428436
ITEM: TIMESTEP energy, energy_weight, force_weight, nsims
57 -2703.6132254200001628 1 1 99
ITEM: NUMBER OF ATOMS
2
ITEM: BOX BOUNDS pp pp pp
0.0 3.2517412773800998
0.0 3.2517412773800998
0.0 3.2517412773800998
ITEM: ATOMS id type x y z
1 1 0.0 0.0 0.0
2 1 1.62587063869 1.62587063869 1.62587063869
ITEM: TIMESTEP energy, energy_weight, force_weight, nsims
58 -2704.4554539199998544 1 1 99
ITEM: NUMBER OF ATOMS
2
ITEM: BOX BOUNDS pp pp pp
0.0 3.7639848544120996
0.0 3.7639848544120996
0.0 3.7639848544120996
ITEM: ATOMS id type x y z
1 1 0.0 0.0 0.0
2 1 1.88199242721 1.88199242721 1.88199242721
ITEM: TIMESTEP energy, energy_weight, force_weight, nsims
59 -2700.9333674399999836 1 1 99
ITEM: NUMBER OF ATOMS
2
ITEM: BOX BOUNDS pp pp pp
0.0 3.0277934656032999
0.0 3.0277934656032999
0.0 3.0277934656032999
ITEM: ATOMS id type x y z
1 1 0.0 0.0 0.0
2 1 1.5138967328 1.5138967328 1.5138967328
ITEM: TIMESTEP energy, energy_weight, force_weight, nsims
60 -2704.0252007799999774 1 1 99
ITEM: NUMBER OF ATOMS
2
ITEM: BOX BOUNDS pp pp pp
0.0 3.8865423052805
0.0 3.8865423052805
0.0 3.8865423052805
ITEM: ATOMS id type x y z
1 1 0.0 0.0 0.0
2 1 1.94327115264 1.94327115264 1.94327115264
ITEM: TIMESTEP energy, energy_weight, force_weight, nsims
61 -2701.3517850600001112 1 1 99
ITEM: NUMBER OF ATOMS
2
ITEM: BOX BOUNDS pp pp pp
0.0 3.0534585621797996
0.0 3.0534585621797996
0.0 3.0534585621797996
ITEM: ATOMS id type x y z
1 1 0.0 0.0 0.0
2 1 1.52672928109 1.52672928109 1.52672928109
ITEM: TIMESTEP energy, energy_weight, force_weight, nsims
62 -2704.1846513000000414 1 1 99
ITEM: NUMBER OF ATOMS
2
ITEM: BOX BOUNDS pp pp pp
0.0 3.8461660811817998
0.0 3.8461660811817998
0.0 3.8461660811817998
ITEM: ATOMS id type x y z
1 1 0.0 0.0 0.0
2 1 1.92308304059 1.92308304059 1.92308304059
ITEM: TIMESTEP energy, energy_weight, force_weight, nsims
63 -2703.9831783599997836 1 1 99
ITEM: NUMBER OF ATOMS
2
ITEM: BOX BOUNDS pp pp pp
0.0 3.8965966730114996
0.0 3.8965966730114996
0.0 3.8965966730114996
ITEM: ATOMS id type x y z
1 1 0.0 0.0 0.0
2 1 1.94829833651 1.94829833651 1.94829833651
ITEM: TIMESTEP energy, energy_weight, force_weight, nsims
64 -2704.7051795600000332 1 1 99
ITEM: NUMBER OF ATOMS
2
ITEM: BOX BOUNDS pp pp pp
0.0 3.6373527387263996
0.0 3.6373527387263996
0.0 3.6373527387263996
ITEM: ATOMS id type x y z
1 1 0.0 0.0 0.0
2 1 1.8186763693600002 1.8186763693600002 1.8186763693600002
ITEM: TIMESTEP energy, energy_weight, force_weight, nsims
65 -2702.5537930400000732 1 1 99
ITEM: NUMBER OF ATOMS
2
ITEM: BOX BOUNDS pp pp pp
0.0 3.1417253273129999
0.0 3.1417253273129999
0.0 3.1417253273129999
ITEM: ATOMS id type x y z
1 1 0.0 0.0 0.0
2 1 1.57086266366 1.57086266366 1.57086266366
ITEM: TIMESTEP energy, energy_weight, force_weight, nsims
66 -2702.2482172199997876 1 1 99
ITEM: NUMBER OF ATOMS
2
ITEM: BOX BOUNDS pp pp pp
0.0 3.1168010788851
0.0 3.1168010788851
0.0 3.1168010788851
ITEM: ATOMS id type x y z
1 1 0.0 0.0 0.0
2 1 1.55840053944 1.55840053944 1.55840053944
ITEM: TIMESTEP energy, energy_weight, force_weight, nsims
67 -2703.8523929600000884 1 1 99
ITEM: NUMBER OF ATOMS
2
ITEM: BOX BOUNDS pp pp pp
0.0 3.9265481053048994
0.0 3.9265481053048994
0.0 3.9265481053048994
ITEM: ATOMS id type x y z
1 1 0.0 0.0 0.0
2 1 1.9632740526500002 1.9632740526500002 1.9632740526500002
ITEM: TIMESTEP energy, energy_weight, force_weight, nsims
68 -2704.5905800599998656 1 1 99
ITEM: NUMBER OF ATOMS
2
ITEM: BOX BOUNDS pp pp pp
0.0 3.4499181571305999
0.0 3.4499181571305999
0.0 3.4499181571305999
ITEM: ATOMS id type x y z
1 1 0.0 0.0 0.0
2 1 1.72495907857 1.72495907857 1.72495907857
ITEM: TIMESTEP energy, energy_weight, force_weight, nsims
69 -2704.2943044799999370 1 1 99
ITEM: NUMBER OF ATOMS
2
ITEM: BOX BOUNDS pp pp pp
0.0 3.8155267184647
0.0 3.8155267184647
0.0 3.8155267184647
ITEM: ATOMS id type x y z
1 1 0.0 0.0 0.0
2 1 1.90776335923 1.90776335923 1.90776335923
ITEM: TIMESTEP energy, energy_weight, force_weight, nsims
70 -2701.913530819999778 1 1 99
ITEM: NUMBER OF ATOMS
2
ITEM: BOX BOUNDS pp pp pp
0.0 3.0916122418326997
0.0 3.0916122418326997
0.0 3.0916122418326997
ITEM: ATOMS id type x y z
1 1 0.0 0.0 0.0
2 1 1.54580612092 1.54580612092 1.54580612092
ITEM: TIMESTEP energy, energy_weight, force_weight, nsims
71 -2703.9403515799999696 1 1 99
ITEM: NUMBER OF ATOMS
2
ITEM: BOX BOUNDS pp pp pp
0.0 3.9065981230175994
0.0 3.9065981230175994
0.0 3.9065981230175994
ITEM: ATOMS id type x y z
1 1 0.0 0.0 0.0
2 1 1.9532990615100002 1.9532990615100002 1.9532990615100002
ITEM: TIMESTEP energy, energy_weight, force_weight, nsims
72 -2704.7272546399999556 1 1 99
ITEM: NUMBER OF ATOMS
2
ITEM: BOX BOUNDS pp pp pp
0.0 3.5393491122115996
0.0 3.5393491122115996
0.0 3.5393491122115996
ITEM: ATOMS id type x y z
1 1 0.0 0.0 0.0
2 1 1.76967455611 1.76967455611 1.76967455611
ITEM: TIMESTEP energy, energy_weight, force_weight, nsims
73 -2703.3116365800001404 1 1 99
ITEM: NUMBER OF ATOMS
2
ITEM: BOX BOUNDS pp pp pp
0.0 3.2154926358235994
0.0 3.2154926358235994
0.0 3.2154926358235994
ITEM: ATOMS id type x y z
1 1 0.0 0.0 0.0
2 1 1.60774631791 1.60774631791 1.60774631791
ITEM: TIMESTEP energy, energy_weight, force_weight, nsims
74 -2704.4255527400000574 1 1 99
ITEM: NUMBER OF ATOMS
2
ITEM: BOX BOUNDS pp pp pp
0.0 3.7743567284924998
0.0 3.7743567284924998
0.0 3.7743567284924998
ITEM: ATOMS id type x y z
1 1 0.0 0.0 0.0
2 1 1.88717836425 1.88717836425 1.88717836425
ITEM: TIMESTEP energy, energy_weight, force_weight, nsims
75 -2704.5289118199998484 1 1 99
ITEM: NUMBER OF ATOMS
2
ITEM: BOX BOUNDS pp pp pp
0.0 3.4272164531484997
0.0 3.4272164531484997
0.0 3.4272164531484997
ITEM: ATOMS id type x y z
1 1 0.0 0.0 0.0
2 1 1.71360822657 1.71360822657 1.71360822657
ITEM: TIMESTEP energy, energy_weight, force_weight, nsims
76 -2704.4549384000001738 1 1 99
ITEM: NUMBER OF ATOMS
2
ITEM: BOX BOUNDS pp pp pp
0.0 3.4043030782667998
0.0 3.4043030782667998
0.0 3.4043030782667998
ITEM: ATOMS id type x y z
1 1 0.0 0.0 0.0
2 1 1.70215153913 1.70215153913 1.70215153913
ITEM: TIMESTEP energy, energy_weight, force_weight, nsims
77 -2704.7369249799999126 1 1 99
ITEM: NUMBER OF ATOMS
2
ITEM: BOX BOUNDS pp pp pp
0.0 3.56136288577
0.0 3.56136288577
0.0 3.56136288577
ITEM: ATOMS id type x y z
1 1 0.0 0.0 0.0
2 1 1.78068144288 1.78068144288 1.78068144288
ITEM: TIMESTEP energy, energy_weight, force_weight, nsims
78 -2704.5612407799999346 1 1 99
ITEM: NUMBER OF ATOMS
2
ITEM: BOX BOUNDS pp pp pp
0.0 3.4385937640019999
0.0 3.4385937640019999
0.0 3.4385937640019999
ITEM: ATOMS id type x y z
1 1 0.0 0.0 0.0
2 1 1.7192968820000002 1.7192968820000002 1.7192968820000002
ITEM: TIMESTEP energy, energy_weight, force_weight, nsims
79 -2703.9471950799998012 1 1 99
ITEM: NUMBER OF ATOMS
2
ITEM: BOX BOUNDS pp pp pp
0.0 3.2994201475149998
0.0 3.2994201475149998
0.0 3.2994201475149998
ITEM: ATOMS id type x y z
1 1 0.0 0.0 0.0
2 1 1.64971007376 1.64971007376 1.64971007376
ITEM: TIMESTEP energy, energy_weight, force_weight, nsims
80 -2704.4935082599999988 1 1 99
ITEM: NUMBER OF ATOMS
2
ITEM: BOX BOUNDS pp pp pp
0.0 3.4157862245701001
0.0 3.4157862245701001
0.0 3.4157862245701001
ITEM: ATOMS id type x y z
1 1 0.0 0.0 0.0
2 1 1.7078931122900002 1.7078931122900002 1.7078931122900002
ITEM: TIMESTEP energy, energy_weight, force_weight, nsims
81 -2704.1067125200002010 1 1 99
ITEM: NUMBER OF ATOMS
2
ITEM: BOX BOUNDS pp pp pp
0.0 3.8663806520936
0.0 3.8663806520936
0.0 3.8663806520936
ITEM: ATOMS id type x y z
1 1 0.0 0.0 0.0
2 1 1.93319032605 1.93319032605 1.93319032605
ITEM: TIMESTEP energy, energy_weight, force_weight, nsims
82 -2701.1472522200001552 1 1 99
ITEM: NUMBER OF ATOMS
2
ITEM: BOX BOUNDS pp pp pp
0.0 3.0406524727540001
0.0 3.0406524727540001
0.0 3.0406524727540001
ITEM: ATOMS id type x y z
1 1 0.0 0.0 0.0
2 1 1.5203262363800002 1.5203262363800002 1.5203262363800002
ITEM: TIMESTEP energy, energy_weight, force_weight, nsims
83 -2704.2587643199999548 1 1 99
ITEM: NUMBER OF ATOMS
2
ITEM: BOX BOUNDS pp pp pp
0.0 3.8257927570952996
0.0 3.8257927570952996
0.0 3.8257927570952996
ITEM: ATOMS id type x y z
1 1 0.0 0.0 0.0
2 1 1.91289637855 1.91289637855 1.91289637855
ITEM: TIMESTEP energy, energy_weight, force_weight, nsims
84 -2703.7894694800002072 1 1 99
ITEM: NUMBER OF ATOMS
2
ITEM: BOX BOUNDS pp pp pp
0.0 3.2756600890348997
0.0 3.2756600890348997
0.0 3.2756600890348997
ITEM: ATOMS id type x y z
1 1 0.0 0.0 0.0
2 1 1.63783004452 1.63783004452 1.63783004452
ITEM: TIMESTEP energy, energy_weight, force_weight, nsims
85 -2703.5719871000001148 1 1 99
ITEM: NUMBER OF ATOMS
2
ITEM: BOX BOUNDS pp pp pp
0.0 3.9858159571928998
0.0 3.9858159571928998
0.0 3.9858159571928998
ITEM: ATOMS id type x y z
1 1 0.0 0.0 0.0
2 1 1.9929079786 1.9929079786 1.9929079786
ITEM: TIMESTEP energy, energy_weight, force_weight, nsims
86 -2703.4237033800000064 1 1 99
ITEM: NUMBER OF ATOMS
2
ITEM: BOX BOUNDS pp pp pp
0.0 4.0150794590625996
0.0 4.0150794590625996
0.0 4.0150794590625996
ITEM: ATOMS id type x y z
1 1 0.0 0.0 0.0
2 1 2.0075397295299999 2.0075397295299999 2.0075397295299999
ITEM: TIMESTEP energy, energy_weight, force_weight, nsims
87 -2704.7332094200000938 1 1 99
ITEM: NUMBER OF ATOMS
2
ITEM: BOX BOUNDS pp pp pp
0.0 3.5503559989907996
0.0 3.5503559989907996
0.0 3.5503559989907996
ITEM: ATOMS id type x y z
1 1 0.0 0.0 0.0
2 1 1.7751779995000002 1.7751779995000002 1.7751779995000002
ITEM: TIMESTEP energy, energy_weight, force_weight, nsims
88 -2703.1139915799999472 1 1 99
ITEM: NUMBER OF ATOMS
2
ITEM: BOX BOUNDS pp pp pp
0.0 4.0730772855529995
0.0 4.0730772855529995
0.0 4.0730772855529995
ITEM: ATOMS id type x y z
1 1 0.0 0.0 0.0
2 1 2.0365386427800001 2.0365386427800001 2.0365386427800001
ITEM: TIMESTEP energy, energy_weight, force_weight, nsims
89 -2704.5114902400000574 1 1 99
ITEM: NUMBER OF ATOMS
2
ITEM: BOX BOUNDS pp pp pp
0.0 3.7431881885263998
0.0 3.7431881885263998
0.0 3.7431881885263998
ITEM: ATOMS id type x y z
1 1 0.0 0.0 0.0
2 1 1.87159409426 1.87159409426 1.87159409426
ITEM: TIMESTEP energy, energy_weight, force_weight, nsims
90 -2704.26699748000010 1 1 99
ITEM: NUMBER OF ATOMS
2
ITEM: BOX BOUNDS pp pp pp
0.0 3.3581059044290998
0.0 3.3581059044290998
0.0 3.3581059044290998
ITEM: ATOMS id type x y z
1 1 0.0 0.0 0.0
2 1 1.67905295221 1.67905295221 1.67905295221
ITEM: TIMESTEP energy, energy_weight, force_weight, nsims
91 -2704.7305897999999616 1 1 99
ITEM: NUMBER OF ATOMS
2
ITEM: BOX BOUNDS pp pp pp
0.0 3.6049670910876
0.0 3.6049670910876
0.0 3.6049670910876
ITEM: ATOMS id type x y z
1 1 0.0 0.0 0.0
2 1 1.80248354554 1.80248354554 1.80248354554
ITEM: TIMESTEP energy, energy_weight, force_weight, nsims
92 -2704.3621835399999328 1 1 99
ITEM: NUMBER OF ATOMS
2
ITEM: BOX BOUNDS pp pp pp
0.0 3.7949946412034996
0.0 3.7949946412034996
0.0 3.7949946412034996
ITEM: ATOMS id type x y z
1 1 0.0 0.0 0.0
2 1 1.8974973206000002 1.8974973206000002 1.8974973206000002
ITEM: TIMESTEP energy, energy_weight, force_weight, nsims
93 -2703.8967473799998516 1 1 99
ITEM: NUMBER OF ATOMS
2
ITEM: BOX BOUNDS pp pp pp
0.0 3.9165995730236998
0.0 3.9165995730236998
0.0 3.9165995730236998
ITEM: ATOMS id type x y z
1 1 0.0 0.0 0.0
2 1 1.95829978651 1.95829978651 1.95829978651
ITEM: TIMESTEP energy, energy_weight, force_weight, nsims
94 -2703.8705863800000772 1 1 99
ITEM: NUMBER OF ATOMS
2
ITEM: BOX BOUNDS pp pp pp
0.0 3.2875665771373997
0.0 3.2875665771373997
0.0 3.2875665771373997
ITEM: ATOMS id type x y z
1 1 0.0 0.0 0.0
2 1 1.64378328857 1.64378328857 1.64378328857
ITEM: TIMESTEP energy, energy_weight, force_weight, nsims
95 -2702.6961224000001494 1 1 99
ITEM: NUMBER OF ATOMS
2
ITEM: BOX BOUNDS pp pp pp
0.0 3.1541609926644996
0.0 3.1541609926644996
0.0 3.1541609926644996
ITEM: ATOMS id type x y z
1 1 0.0 0.0 0.0
2 1 1.57708049633 1.57708049633 1.57708049633
ITEM: TIMESTEP energy, energy_weight, force_weight, nsims
96 -2704.6073436599999696 1 1 99
ITEM: NUMBER OF ATOMS
2
ITEM: BOX BOUNDS pp pp pp
0.0 3.7012244326806996
0.0 3.7012244326806996
0.0 3.7012244326806996
ITEM: ATOMS id type x y z
1 1 0.0 0.0 0.0
2 1 1.8506122163400002 1.8506122163400002 1.8506122163400002
ITEM: TIMESTEP energy, energy_weight, force_weight, nsims
97 -2704.7378769599999942 1 1 99
ITEM: NUMBER OF ATOMS
2
ITEM: BOX BOUNDS pp pp pp
0.0 3.5832179061537
0.0 3.5832179061537
0.0 3.5832179061537
ITEM: ATOMS id type x y z
1 1 0.0 0.0 0.0
2 1 1.79160895308 1.79160895308 1.79160895308
ITEM: TIMESTEP energy, energy_weight, force_weight, nsims
98 -2702.084636860000046 1 1 99
ITEM: NUMBER OF ATOMS
2
ITEM: BOX BOUNDS pp pp pp
0.0 3.1042066603589
0.0 3.1042066603589
0.0 3.1042066603589
ITEM: ATOMS id type x y z
1 1 0.0 0.0 0.0
2 1 1.55210333018 1.55210333018 1.55210333018
