ITEM: TIMESTEP energy, energy_weight, force_weight, nsims
0 -2703.9544995199998992 1 1 99
ITEM: NUMBER OF ATOMS
2
ITEM: BOX BOUNDS xy xz yz pp pp pp
-1.7775592971159 3.5551185942318 -1.7775592971159
0.0 3.0788215805695947 0.0
0.0 5.6745238748946526 0.0
ITEM: ATOMS id type x y z
1 1 -1.13763795015e-05 2.0525542885300001 1.4186309687200001
2 1 1.7775706735000002 1.02626729204 4.2558929061699997
ITEM: TIMESTEP energy, energy_weight, force_weight, nsims
1 -2704.7861644800000250 1 1 99
ITEM: NUMBER OF ATOMS
2
ITEM: BOX BOUNDS xy xz yz pp pp pp
-1.6707713282677 3.3415426565353999 -1.6707713282677
0.0 2.89385947912607 0.0
0.0 5.3336233604849177 0.0
ITEM: ATOMS id type x y z
1 1 -1.0692936500799999e-05 1.92924582632 1.33340584012
2 1 1.6707820212 0.964613652808 4.0002175203599997
ITEM: TIMESTEP energy, energy_weight, force_weight, nsims
2 -2704.715173539999796 1 1 99
ITEM: NUMBER OF ATOMS
2
ITEM: BOX BOUNDS xy xz yz pp pp pp
-1.6850855728531498 3.3701711457062995 -1.6850855728531498
0.0 2.9186524664602982 0.0
0.0 5.3793188952459836 0.0
ITEM: ATOMS id type x y z
1 1 -1.07845476662e-05 1.94577453743 1.34482972381
2 1 1.6850963574 0.972877929028 4.0344891714299997
ITEM: TIMESTEP energy, energy_weight, force_weight, nsims
3 -2703.2292400599999384 1 1 99
ITEM: NUMBER OF ATOMS
2
ITEM: BOX BOUNDS xy xz yz pp pp pp
-1.8395259529738 3.6790519059476 -1.8395259529738
0.0 3.1861509268482702 0.0
0.0 5.8723407739896968 0.0
ITEM: ATOMS id type x y z
1 1 -1.1772966099e-05 2.1241074150200001 1.4680851935000002
2 1 1.8395377259400002 1.06204351183 4.4042555804900001
ITEM: TIMESTEP energy, energy_weight, force_weight, nsims
4 -2702.5093606599998566 1 1 99
ITEM: NUMBER OF ATOMS
2
ITEM: BOX BOUNDS xy xz yz pp pp pp
-1.4222696921372999 2.8445393842745998 -1.4222696921372999
0.0 2.4634422202664106 0.0
0.0 4.5403286054462076 0.0
ITEM: ATOMS id type x y z
1 1 -9.1025260296199999e-06 1.64230006885 1.13508215136
2 1 1.42227879466 0.821142151412 3.4052464540799998
ITEM: TIMESTEP energy, energy_weight, force_weight, nsims
5 -2703.9494771399999992 1 1 99
ITEM: NUMBER OF ATOMS
2
ITEM: BOX BOUNDS xy xz yz pp pp pp
-1.48828455395005 2.9765691079001 -1.48828455395005
0.0 2.5777832616691844 0.0
0.0 4.7510686409893914 0.0
ITEM: ATOMS id type x y z
1 1 -9.5250211452199984e-06 1.71852767372 1.18776716025
2 1 1.4882940789700002 0.859255587952 3.56330148074
ITEM: TIMESTEP energy, energy_weight, force_weight, nsims
6 -2703.6570151999999328 1 1 99
ITEM: NUMBER OF ATOMS
2
ITEM: BOX BOUNDS xy xz yz pp pp pp
-1.8043885836402 3.6087771672804002 -1.8043885836402
0.0 3.1252912462940086 0.0
0.0 5.7601713282176138 0.0
ITEM: ATOMS id type x y z
1 1 -1.1548086935200002e-05 2.0835341648200001 1.4400428320500001
2 1 1.80440013173 1.0417570814799999 4.3201284961599997
ITEM: TIMESTEP energy, energy_weight, force_weight, nsims
7 -2704.2256001000000652 1 1 99
ITEM: NUMBER OF ATOMS
2
ITEM: BOX BOUNDS xy xz yz pp pp pp
-1.75033312765485 3.5006662553097 -1.75033312765485
0.0 3.0316644937545831 0.0
0.0 5.5876094474101086 0.0
ITEM: ATOMS id type x y z
1 1 -1.12021320169e-05 2.0211161300499998 1.3969023618500001
2 1 1.7503443297900002 1.0105483636999999 4.1907070855599997
ITEM: TIMESTEP energy, energy_weight, force_weight, nsims
8 -2703.5002292200001648 1 1 99
ITEM: NUMBER OF ATOMS
2
ITEM: BOX BOUNDS xy xz yz pp pp pp
-1.8176444737276498 3.6352889474552996 -1.8176444737276498
0.0 3.148251110719976 0.0
0.0 5.8024882652144606 0.0
ITEM: ATOMS id type x y z
1 1 -1.1632924631800001e-05 2.0988407900800001 1.4506220663
2 1 1.8176561066500002 1.0494103206400001 4.3518661989099998
ITEM: TIMESTEP energy, energy_weight, force_weight, nsims
9 -2704.1131113800001912 1 1 99
ITEM: NUMBER OF ATOMS
2
ITEM: BOX BOUNDS xy xz yz pp pp pp
-1.4990003932423 2.9980007864845998 -1.4990003932423
0.0 2.5963436311153258 0.0
0.0 4.7852769433521126 0.0
ITEM: ATOMS id type x y z
1 1 -9.5936025166900016e-06 1.7309012929400002 1.1963192358400001
2 1 1.49900998684 0.865442338172 3.5889577075100002
ITEM: TIMESTEP energy, energy_weight, force_weight, nsims
10 -2704.0481118200000310 1 1 99
ITEM: NUMBER OF ATOMS
2
ITEM: BOX BOUNDS xy xz yz pp pp pp
-1.7685368250204498 3.5370736500408998 -1.7685368250204498
0.0 3.0631942077766703 0.0
0.0 5.6457213289546822 0.0
ITEM: ATOMS id type x y z
1 1 -1.13186356801e-05 2.0421360066699998 1.4114303322399999
2 1 1.76854814366 1.02105820111 4.2342909967200004
ITEM: TIMESTEP energy, energy_weight, force_weight, nsims
11 -2704.8231761000001826 1 1 99
ITEM: NUMBER OF ATOMS
2
ITEM: BOX BOUNDS xy xz yz pp pp pp
-1.5770804963322498 3.1541609926644996 -1.5770804963322498
0.0 2.7315822736722732 0.0
0.0 5.0345329934073968 0.0
ITEM: ATOMS id type x y z
1 1 -1.00933151765e-05 1.82106067649 1.25863324835
2 1 1.57709058965 0.910521597182 3.7758997450599998
ITEM: TIMESTEP energy, energy_weight, force_weight, nsims
12 -2704.3883634399999210 1 1 99
ITEM: NUMBER OF ATOMS
2
ITEM: BOX BOUNDS xy xz yz pp pp pp
-1.7319442182521 3.4638884365041998 -1.7319442182521
0.0 2.9998139832235498 0.0
0.0 5.5289063112567974 0.0
ITEM: ATOMS id type x y z
1 1 -1.1084442996699999e-05 1.9998823884200002 1.38222657781
2 1 1.7319553027000002 0.999931594805 4.1466797334400001
ITEM: TIMESTEP energy, energy_weight, force_weight, nsims
13 -2703.2137382400001116 1 1 99
ITEM: NUMBER OF ATOMS
2
ITEM: BOX BOUNDS xy xz yz pp pp pp
-1.4501573331596001 2.9003146663192002 -1.4501573331596001
0.0 2.5117450088990854 0.0
0.0 4.6293546565333888 0.0
ITEM: ATOMS id type x y z
1 1 -9.2810069321699995e-06 1.6745020309900002 1.1573386641300001
2 1 1.4501666141700001 0.83724297791 3.4720159923999998
ITEM: TIMESTEP energy, energy_weight, force_weight, nsims
14 -2702.0032735400000092 1 1 99
ITEM: NUMBER OF ATOMS
2
ITEM: BOX BOUNDS xy xz yz pp pp pp
-1.4052831024443999 2.8105662048887998 -1.4052831024443999
0.0 2.4340205975888232 0.0
0.0 4.486102111330487 0.0
ITEM: ATOMS id type x y z
1 1 -8.9938118555899998e-06 1.62268559097 1.12152552783
2 1 1.40529209626 0.811335006619 3.3645765834999999
ITEM: TIMESTEP energy, energy_weight, force_weight, nsims
15 -2702.6635255400001370 1 1 99
ITEM: NUMBER OF ATOMS
2
ITEM: BOX BOUNDS xy xz yz pp pp pp
-1.4278789709766999 2.8557579419533998 -1.4278789709766999
0.0 2.4731577716801932 0.0
0.0 4.5582351735965708 0.0
ITEM: ATOMS id type x y z
1 1 -9.1384254141999986e-06 1.64877712386 1.1395587934
2 1 1.4278881094 0.824380647823 3.4186763802
ITEM: TIMESTEP energy, energy_weight, force_weight, nsims
16 -2704.9069714000002024 1 1 99
ITEM: NUMBER OF ATOMS
2
ITEM: BOX BOUNDS xy xz yz pp pp pp
-1.6221399390846 3.2442798781691997 -1.6221399390846
0.0 2.8096274814914812 0.0
0.0 5.1783767932190372 0.0
ITEM: ATOMS id type x y z
1 1 -1.0381695610100001e-05 1.8730909815300002 1.2945941983
2 1 1.6221503207800002 0.936536499959 3.88378259491
ITEM: TIMESTEP energy, energy_weight, force_weight, nsims
17 -2702.810831700000108 1 1 99
ITEM: NUMBER OF ATOMS
2
ITEM: BOX BOUNDS xy xz yz pp pp pp
-1.4334882498160999 2.8669764996321998 -1.4334882498160999
0.0 2.4828733230939762 0.0
0.0 4.576141741746933 0.0
ITEM: ATOMS id type x y z
1 1 -9.1743247987699999e-06 1.65525417886 1.14403543544
2 1 1.4334974241400001 0.827619144235 3.4321063063100002
ITEM: TIMESTEP energy, energy_weight, force_weight, nsims
18 -2704.9076990200001092 1 1 99
ITEM: NUMBER OF ATOMS
2
ITEM: BOX BOUNDS xy xz yz pp pp pp
-1.61719213180645 3.2343842636128999 -1.61719213180645
0.0 2.801057631895362 0.0
0.0 5.1625818486713113 0.0
ITEM: ATOMS id type x y z
1 1 -1.0350029643500001e-05 1.8673777301900002 1.2906454621700001
2 1 1.61720248184 0.933679901709 3.8719363864999998
ITEM: TIMESTEP energy, energy_weight, force_weight, nsims
19 -2704.1825240600001052 1 1 99
ITEM: NUMBER OF ATOMS
2
ITEM: BOX BOUNDS xy xz yz pp pp pp
-1.75488405199625 3.5097681039924998 -1.75488405199625
0.0 3.0395469222601048 0.0
0.0 5.6021374177962518 0.0
ITEM: ATOMS id type x y z
1 1 -1.1231257932700001e-05 2.0263710992099999 1.40053435445
2 1 1.75489528325 1.0131758230500001 4.2016030633500003
ITEM: TIMESTEP energy, energy_weight, force_weight, nsims
20 -2704.258349619999990 1 1 99
ITEM: NUMBER OF ATOMS
2
ITEM: BOX BOUNDS xy xz yz pp pp pp
-1.50966331480965 3.0193266296192998 -1.50966331480965
0.0 2.614812344416054 0.0
0.0 4.8193163158266224 0.0
ITEM: ATOMS id type x y z
1 1 -9.6618452147199996e-06 1.74321380788 1.20482907896
2 1 1.5096729766500002 0.871598536539 3.6144872368700002
ITEM: TIMESTEP energy, energy_weight, force_weight, nsims
21 -2704.800124920000144 1 1 99
ITEM: NUMBER OF ATOMS
2
ITEM: BOX BOUNDS xy xz yz pp pp pp
-1.57200039474185 3.1440007894836999 -1.57200039474185
0.0 2.7227832837126212 0.0
0.0 5.0183157241391445 0.0
ITEM: ATOMS id type x y z
1 1 -1.0060802526300001e-05 1.8151946644100002 1.25457893103
2 1 1.5720104555400002 0.9075886193 3.7637367931000002
ITEM: TIMESTEP energy, energy_weight, force_weight, nsims
22 -2703.1737857799998892 1 1 99
ITEM: NUMBER OF ATOMS
2
ITEM: BOX BOUNDS xy xz yz pp pp pp
-1.8438916652780498 3.6877833305560994 -1.8438916652780498
0.0 3.1937125588448461 0.0
0.0 5.8862774897671014 0.0
ITEM: ATOMS id type x y z
1 1 -1.1800906657699999e-05 2.1291485191500002 1.4715693724400002
2 1 1.84390346618 1.06456403969 4.41470811733
ITEM: TIMESTEP energy, energy_weight, force_weight, nsims
23 -2703.4469394399998236 1 1 99
ITEM: NUMBER OF ATOMS
2
ITEM: BOX BOUNDS xy xz yz pp pp pp
-1.82203664489435 3.6440732897886998 -1.82203664489435
0.0 3.1558585707892588 0.0
0.0 5.8165094459359716 0.0
ITEM: ATOMS id type x y z
1 1 -1.1661034527300001e-05 2.1039124463599999 1.4541273614800002
2 1 1.82204830593 1.0519461244299999 4.3623820844500001
ITEM: TIMESTEP energy, energy_weight, force_weight, nsims
24 -2703.0857381800001348 1 1 99
ITEM: NUMBER OF ATOMS
2
ITEM: BOX BOUNDS xy xz yz pp pp pp
-1.4446009720451001 2.8892019440902002 -1.4446009720451001
0.0 2.5021211136307158 0.0
0.0 4.6116170182712368 0.0
ITEM: ATOMS id type x y z
1 1 -9.2454462210300008e-06 1.66808608028 1.1529042545699999
2 1 1.44461021749 0.834035033352 3.4587127637
ITEM: TIMESTEP energy, energy_weight, force_weight, nsims
25 -2704.6307296599998154 1 1 99
ITEM: NUMBER OF ATOMS
2
ITEM: BOX BOUNDS xy xz yz pp pp pp
-1.69926752312635 3.3985350462526998 -1.69926752312635
0.0 2.9432163134309946 0.0
0.0 5.424592105286524 0.0
ITEM: ATOMS id type x y z
1 1 -1.08753121479e-05 1.96215048782 1.3561480263200001
2 1 1.69927839844 0.981065825616 4.0684440789599998
ITEM: TIMESTEP energy, energy_weight, force_weight, nsims
26 -2704.8066028200000802 1 1 99
ITEM: NUMBER OF ATOMS
2
ITEM: BOX BOUNDS xy xz yz pp pp pp
-1.6659558153018 3.3319116306035999 -1.6659558153018
0.0 2.8855187698934826 0.0
0.0 5.3182507406577191 0.0
ITEM: ATOMS id type x y z
1 1 -1.06621172179e-05 1.9236853357000002 1.32956268516
2 1 1.66596647742 0.961833434191 3.98868805549
ITEM: TIMESTEP energy, energy_weight, force_weight, nsims
27 -2704.349174519999906 1 1 99
ITEM: NUMBER OF ATOMS
2
ITEM: BOX BOUNDS xy xz yz pp pp pp
-1.7365480603183998 3.4730961206367996 -1.7365480603183998
0.0 3.0077880678744844 0.0
0.0 5.543603211531151 0.0
ITEM: ATOMS id type x y z
1 1 -1.1113907586e-05 2.0051984618600001 1.38590080288
2 1 1.73655917423 1.0025896060099999 4.1577024086499996
ITEM: TIMESTEP energy, energy_weight, force_weight, nsims
28 -2704.4264901599999576 1 1 99
ITEM: NUMBER OF ATOMS
2
ITEM: BOX BOUNDS xy xz yz pp pp pp
-1.7273139173233498 3.4546278346466996 -1.7273139173233498
0.0 2.9917940704999082 0.0
0.0 5.5141249460383372 0.0
ITEM: ATOMS id type x y z
1 1 -1.10548090708e-05 1.99453576283 1.37853123651
2 1 1.72732497213 0.997258307673 4.1355937095300002
ITEM: TIMESTEP energy, energy_weight, force_weight, nsims
29 -2703.708170660000178 1 1 99
ITEM: NUMBER OF ATOMS
2
ITEM: BOX BOUNDS xy xz yz pp pp pp
-1.7999434947486 3.5998869894972 -1.7999434947486
0.0 3.1175921300793128 0.0
0.0 5.7459812176078922 0.0
ITEM: ATOMS id type x y z
1 1 -1.15196383663e-05 2.0784014042500001 1.4364953044
2 1 1.7999550143900002 1.0391907258299999 4.3094859132099997
ITEM: TIMESTEP energy, energy_weight, force_weight, nsims
30 -2700.99764155999992 1 1 99
ITEM: NUMBER OF ATOMS
2
ITEM: BOX BOUNDS xy xz yz pp pp pp
-1.3764958600988 2.7529917201976 -1.3764958600988
0.0 2.3841596544841268 0.0
0.0 4.3942042521437204 0.0
ITEM: ATOMS id type x y z
1 1 -8.8095735045800012e-06 1.5894448558600002 1.0985510630399999
2 1 1.3765046696700001 0.794714798621 3.2956531891099999
ITEM: TIMESTEP energy, energy_weight, force_weight, nsims
31 -2703.393174159999944 1 1 99
ITEM: NUMBER OF ATOMS
2
ITEM: BOX BOUNDS xy xz yz pp pp pp
-1.8264288160610498 3.6528576321220996 -1.8264288160610498
0.0 3.1634660308585416 0.0
0.0 5.830530626657482 0.0
ITEM: ATOMS id type x y z
1 1 -1.16891444227e-05 2.10898410263 1.45763265666
2 1 1.82644050521 1.05448192823 4.3728979699900004
ITEM: TIMESTEP energy, energy_weight, force_weight, nsims
32 -2704.4980710400000136 1 1 99
ITEM: NUMBER OF ATOMS
2
ITEM: BOX BOUNDS xy xz yz pp pp pp
-1.53072456931985 3.0614491386396998 -1.53072456931985
0.0 2.6512914902904462 0.0
0.0 4.8865504113345884 0.0
ITEM: ATOMS id type x y z
1 1 -9.7966372435900002e-06 1.76753331628 1.22163760283
2 1 1.53073436596 0.8837581740080002 3.6649128085
ITEM: TIMESTEP energy, energy_weight, force_weight, nsims
33 -2704.1879573199998958 1 1 99
ITEM: NUMBER OF ATOMS
2
ITEM: BOX BOUNDS xy xz yz pp pp pp
-1.5043450834572 3.0086901669143997 -1.5043450834572
0.0 2.6056009018020432 0.0
0.0 4.8023388620614202 0.0
ITEM: ATOMS id type x y z
1 1 -9.6278085340700006e-06 1.73707282648 1.20058471552
2 1 1.50435471127 0.868528075319 3.6017541465499998
ITEM: TIMESTEP energy, energy_weight, force_weight, nsims
34 -2704.8821353200000886 1 1 99
ITEM: NUMBER OF ATOMS
2
ITEM: BOX BOUNDS xy xz yz pp pp pp
-1.64174595616005 3.2834919123201001 -1.64174595616005
0.0 2.8435860833670148 0.0
0.0 5.2409653168012014 0.0
ITEM: ATOMS id type x y z
1 1 -1.05071741194e-05 1.89573012189 1.3102413291999999
2 1 1.64175646333 0.947855961472 3.9307239876
ITEM: TIMESTEP energy, energy_weight, force_weight, nsims
35 -2704.9039833400001956 1 1 99
ITEM: NUMBER OF ATOMS
2
ITEM: BOX BOUNDS xy xz yz pp pp pp
-1.6270612875003 3.2541225750005998 -1.6270612875003
0.0 2.8181515030148946 0.0
0.0 5.1940872728226566 0.0
ITEM: ATOMS id type x y z
1 1 -1.04131922399e-05 1.87877368073 1.29852181821
2 1 1.62707170069 0.939377822282 3.8955654546199998
ITEM: TIMESTEP energy, energy_weight, force_weight, nsims
36 -2700.0262845399997786 1 1 99
ITEM: NUMBER OF ATOMS
2
ITEM: BOX BOUNDS xy xz yz pp pp pp
-1.3530268491056499 2.7060536982112998 -1.3530268491056499
0.0 2.3435101539934409 0.0
0.0 4.3192838467221551 0.0
ITEM: ATOMS id type x y z
1 1 -8.65937183422e-06 1.5623451021500002 1.0798209616800001
2 1 1.3530355084800001 0.781165051843 3.23946288504
ITEM: TIMESTEP energy, energy_weight, force_weight, nsims
37 -2704.5998159599998872 1 1 99
ITEM: NUMBER OF ATOMS
2
ITEM: BOX BOUNDS xy xz yz pp pp pp
-1.7039772006424498 3.4079544012848997 -1.7039772006424498
0.0 2.9513737103727556 0.0
0.0 5.4396268653373001 0.0
ITEM: ATOMS id type x y z
1 1 -1.0905454083999999e-05 1.96758876985 1.3599067163300001
2 1 1.7039881061 0.983784940527 4.0797201489999999
ITEM: TIMESTEP energy, energy_weight, force_weight, nsims
38 -2703.6668403600001512 1 1 99
ITEM: NUMBER OF ATOMS
2
ITEM: BOX BOUNDS xy xz yz pp pp pp
-1.4720652712682 2.9441305425363998 -1.4720652712682
0.0 2.5496906531000856 0.0
0.0 4.6992916302527298 0.0
ITEM: ATOMS id type x y z
1 1 -9.4212177360600009e-06 1.69979920807 1.1748229075600001
2 1 1.47207469249 0.849891445027 3.52446872269
ITEM: TIMESTEP energy, energy_weight, force_weight, nsims
39 -2704.7740183400001116 1 1 99
ITEM: NUMBER OF ATOMS
2
ITEM: BOX BOUNDS xy xz yz pp pp pp
-1.5668938342889998 3.1337876685779995 -1.5668938342889998
0.0 2.7139384656802622 0.0
0.0 5.0020139899267848 0.0
ITEM: ATOMS id type x y z
1 1 -1.0028120539399998e-05 1.80929810019 1.25050349748
2 1 1.56690386241 0.904640365491 3.75151049245
ITEM: TIMESTEP energy, energy_weight, force_weight, nsims
40 -2702.3481001999998626 1 1 99
ITEM: NUMBER OF ATOMS
2
ITEM: BOX BOUNDS xy xz yz pp pp pp
-1.4166339544354498 2.8332679088708996 -1.4166339544354498
0.0 2.4536808407799212 0.0
0.0 4.5223375723517396 0.0
ITEM: ATOMS id type x y z
1 1 -9.0664573083300013e-06 1.63579246171 1.1305843930899999
2 1 1.4166430208900001 0.817888379074 3.3917531792600002
ITEM: TIMESTEP energy, energy_weight, force_weight, nsims
41 -2704.0016859399997884 1 1 99
ITEM: NUMBER OF ATOMS
2
ITEM: BOX BOUNDS xy xz yz pp pp pp
-1.7730612904994 3.5461225809987998 -1.7730612904994
0.0 3.0710308082094855 0.0
0.0 5.6601648343967198 0.0
ITEM: ATOMS id type x y z
1 1 -1.1347592259100001e-05 2.0473604236699998 1.4150412086
2 1 1.77307263809 1.0236703845399999 4.2451236257999998
ITEM: TIMESTEP energy, energy_weight, force_weight, nsims
42 -2704.8748612200001844 1 1 99
ITEM: NUMBER OF ATOMS
2
ITEM: BOX BOUNDS xy xz yz pp pp pp
-1.5922414245160998 3.1844828490321997 -1.5922414245160998
0.0 2.757841759333111 0.0
0.0 5.0829314063798394 0.0
ITEM: ATOMS id type x y z
1 1 -1.0190345116799999e-05 1.8385670562800002 1.2707328515900001
2 1 1.5922516148600002 0.919274703049 3.8121985547800002
ITEM: TIMESTEP energy, energy_weight, force_weight, nsims
43 -2704.6602916599999844 1 1 99
ITEM: NUMBER OF ATOMS
2
ITEM: BOX BOUNDS xy xz yz pp pp pp
-1.6945578456102498 3.3891156912204994 -1.6945578456102498
0.0 2.9350589164892332 0.0
0.0 5.4095573452357471 0.0
ITEM: ATOMS id type x y z
1 1 -1.0845170211799999e-05 1.95671220579 1.3523893363099999
2 1 1.69456869078 0.978346710704 4.0571680089299997
ITEM: TIMESTEP energy, energy_weight, force_weight, nsims
44 -2704.9020835800001808 1 1 99
ITEM: NUMBER OF ATOMS
2
ITEM: BOX BOUNDS xy xz yz pp pp pp
-1.6072700583877 3.2145401167754 -1.6072700583877
0.0 2.783872104630416 0.0
0.0 5.1309074946317548 0.0
ITEM: ATOMS id type x y z
1 1 -1.0286528373599999e-05 1.85592067535 1.28272687366
2 1 1.60728034492 0.927951429283 3.84818062097
ITEM: TIMESTEP energy, energy_weight, force_weight, nsims
45 -2704.8574841200002084 1 1 99
ITEM: NUMBER OF ATOMS
2
ITEM: BOX BOUNDS xy xz yz pp pp pp
-1.6514828175416498 3.3029656350832997 -1.6514828175416498
0.0 2.860450814123015 0.0
0.0 5.2720484162320194 0.0
ITEM: ATOMS id type x y z
1 1 -1.05694900322e-05 1.90697331171 1.3180121040599999
2 1 1.65149338703 0.953477502413 3.95403631217
ITEM: TIMESTEP energy, energy_weight, force_weight, nsims
46 -2703.5530207400001928 1 1 99
ITEM: NUMBER OF ATOMS
2
ITEM: BOX BOUNDS xy xz yz pp pp pp
-1.8132258436984998 3.6264516873969996 -1.8132258436984998
0.0 3.1405978225779867 0.0
0.0 5.7883826195488446 0.0
ITEM: ATOMS id type x y z
1 1 -1.16046453996e-05 2.0937385816599998 1.4470956548900001
2 1 1.81323744834 1.0468592409199999 4.3412869646600001
ITEM: TIMESTEP energy, energy_weight, force_weight, nsims
47 -2703.90658287999986 1 1 99
ITEM: NUMBER OF ATOMS
2
ITEM: BOX BOUNDS xy xz yz pp pp pp
-1.7820573037324 3.5641146074647998 -1.7820573037324
0.0 3.0866123529297034 0.0
0.0 5.6888829153925844 0.0
ITEM: ATOMS id type x y z
1 1 -1.1405166743799999e-05 2.05774815339 1.42222072885
2 1 1.7820687089 1.0288641995400001 4.2666621865399996
ITEM: TIMESTEP energy, energy_weight, force_weight, nsims
48 -2703.3356785000000856 1 1 99
ITEM: NUMBER OF ATOMS
2
ITEM: BOX BOUNDS xy xz yz pp pp pp
-1.4556607765491998 2.9113215530983996 -1.4556607765491998
0.0 2.5212772480220416 0.0
0.0 4.6469233649073286 0.0
ITEM: ATOMS id type x y z
1 1 -9.3162289698599992e-06 1.68085687741 1.16173084123
2 1 1.45567009278 0.840420370616 3.48519252368
ITEM: TIMESTEP energy, energy_weight, force_weight, nsims
49 -2704.8865452999998524 1 1 99
ITEM: NUMBER OF ATOMS
2
ITEM: BOX BOUNDS xy xz yz pp pp pp
-1.5972686083816 3.1945372167631998 -1.5972686083816
0.0 2.7665490931473502 0.0
0.0 5.0989797457598813 0.0
ITEM: ATOMS id type x y z
1 1 -1.02225190936e-05 1.84437196407 1.2747449364400001
2 1 1.5972788309 0.922177129078 3.82423480932
ITEM: TIMESTEP energy, energy_weight, force_weight, nsims
50 -2700.5318702999998096 1 1 99
ITEM: NUMBER OF ATOMS
2
ITEM: BOX BOUNDS xy xz yz pp pp pp
-1.3648275017583498 2.7296550035166996 -1.3648275017583498
0.0 2.3639494744205498 0.0
0.0 4.3569552117932009 0.0
ITEM: ATOMS id type x y z
1 1 -8.7348960112e-06 1.57597135937 1.08923880295
2 1 1.36483623665 0.787978115048 3.2677164088400002
ITEM: TIMESTEP energy, energy_weight, force_weight, nsims
51 -2701.4259863799998132 1 1 99
ITEM: NUMBER OF ATOMS
2
ITEM: BOX BOUNDS xy xz yz pp pp pp
-1.3880848418518999 2.7761696837037998 -1.3880848418518999
0.0 2.4042323503295831 0.0
0.0 4.431199897661922 0.0
ITEM: ATOMS id type x y z
1 1 -8.8837429877999998e-06 1.60282669592 1.10779997442
2 1 1.3880937255900001 0.801405654414 3.3233999232500002
ITEM: TIMESTEP energy, energy_weight, force_weight, nsims
52 -2704.5945089400001962 1 1 99
ITEM: NUMBER OF ATOMS
2
ITEM: BOX BOUNDS xy xz yz pp pp pp
-1.54114936112515 3.0822987222502998 -1.54114936112515
0.0 2.669347750936816 0.0
0.0 4.9198295993121492 0.0
ITEM: ATOMS id type x y z
1 1 -9.8633559111400012e-06 1.7795708619 1.22995739983
2 1 1.5411592244800002 0.889776889037 3.68987219948
ITEM: TIMESTEP energy, energy_weight, force_weight, nsims
53 -2704.8423187799999142 1 1 99
ITEM: NUMBER OF ATOMS
2
ITEM: BOX BOUNDS xy xz yz pp pp pp
-1.6563247893699998 3.3126495787399995 -1.6563247893699998
0.0 2.8688373514283084 0.0
0.0 5.2875055010033219 0.0
ITEM: ATOMS id type x y z
1 1 -1.0600478651900001e-05 1.91256435447 1.32187637525
2 1 1.65633538985 0.956272996956 3.96562912575
ITEM: TIMESTEP energy, energy_weight, force_weight, nsims
54 -2704.5675941999998032 1 1 99
ITEM: NUMBER OF ATOMS
2
ITEM: BOX BOUNDS xy xz yz pp pp pp
-1.7086604192961 3.4173208385921998 -1.7086604192961
0.0 2.95948527924181 0.0
0.0 5.4545771604439706 0.0
ITEM: ATOMS id type x y z
1 1 -1.09354266834e-05 1.97299649973 1.3636442901100001
2 1 1.7086713547200002 0.986488779512 4.0909328703299996
ITEM: TIMESTEP energy, energy_weight, force_weight, nsims
55 -2703.5620645200001492 1 1 99
ITEM: NUMBER OF ATOMS
2
ITEM: BOX BOUNDS xy xz yz pp pp pp
-1.4666147456035 2.9332294912069998 -1.4666147456035
0.0 2.5402500701225424 0.0
0.0 4.6818918517669994 0.0
ITEM: ATOMS id type x y z
1 1 -9.3863343718099994e-06 1.69350546595 1.1704729629399999
2 1 1.46662413194 0.846744604174 3.5114188888300002
ITEM: TIMESTEP energy, energy_weight, force_weight, nsims
56 -2704.6884551200000716 1 1 99
ITEM: NUMBER OF ATOMS
2
ITEM: BOX BOUNDS xy xz yz pp pp pp
-1.6898217092316998 3.3796434184633997 -1.6898217092316998
0.0 2.9268556914747656 0.0
0.0 5.3944381202408662 0.0
ITEM: ATOMS id type x y z
1 1 -1.0814858939000001e-05 1.95124337161 1.3486095300600001
2 1 1.6898325240900002 0.975612319866 4.0458285901800002
ITEM: TIMESTEP energy, energy_weight, force_weight, nsims
57 -2701.2163519800001268 1 1 99
ITEM: NUMBER OF ATOMS
2
ITEM: BOX BOUNDS xy xz yz pp pp pp
-1.3823168098378001 2.7646336196756002 -1.3823168098378001
0.0 2.3942418304795617 0.0
0.0 4.4127865398469268 0.0
ITEM: ATOMS id type x y z
1 1 -8.8468275829100006e-06 1.59616632804 1.10319663496
2 1 1.38232565667 0.7980755024440002 3.3095899048900002
ITEM: TIMESTEP energy, energy_weight, force_weight, nsims
58 -2704.3089598800002022 1 1 99
ITEM: NUMBER OF ATOMS
2
ITEM: BOX BOUNDS xy xz yz pp pp pp
-1.7411519023846998 3.4823038047693996 -1.7411519023846998
0.0 3.0157621525254195 0.0
0.0 5.5583001118055054 0.0
ITEM: ATOMS id type x y z
1 1 -1.1143372175199999e-05 2.01051453531 1.3895750279500001
2 1 1.74116304576 1.00524761722 4.1687250838500001
ITEM: TIMESTEP energy, energy_weight, force_weight, nsims
59 -2704.5341097000000446 1 1 99
ITEM: NUMBER OF ATOMS
2
ITEM: BOX BOUNDS xy xz yz pp pp pp
-1.71334363794975 3.4266872758995 -1.71334363794975
0.0 2.9675968481108646 0.0
0.0 5.469527455550642 0.0
ITEM: ATOMS id type x y z
1 1 -1.0965399282800001e-05 1.97840422961 1.36738186389
2 1 1.71335460335 0.989192618497 4.1021455916600003
ITEM: TIMESTEP energy, energy_weight, force_weight, nsims
60 -2704.4635164599999372 1 1 99
ITEM: NUMBER OF ATOMS
2
ITEM: BOX BOUNDS xy xz yz pp pp pp
-1.72265715753215 3.4453143150642998 -1.72265715753215
0.0 2.9837283297035602 0.0
0.0 5.4992591158757724 0.0
ITEM: ATOMS id type x y z
1 1 -1.1025005808099999e-05 1.98915858509 1.3748147789700001
2 1 1.7226681825400002 0.994569744614 4.1244443369099999
ITEM: TIMESTEP energy, energy_weight, force_weight, nsims
61 -2703.6052907600001164 1 1 99
ITEM: NUMBER OF ATOMS
2
ITEM: BOX BOUNDS xy xz yz pp pp pp
-1.8088072136693498 3.6176144273386996 -1.8088072136693498
0.0 3.1329445344359974 0.0
0.0 5.7742769738832296 0.0
ITEM: ATOMS id type x y z
1 1 -1.1576366167400001e-05 2.08863637324 1.4435692434700001
2 1 1.80881879004 1.0443081612 4.3307077304100004
ITEM: TIMESTEP energy, energy_weight, force_weight, nsims
62 -2704.4441669799998636 1 1 99
ITEM: NUMBER OF ATOMS
2
ITEM: BOX BOUNDS xy xz yz pp pp pp
-1.52548571455475 3.0509714291095 -1.52548571455475
0.0 2.6422175318945552 0.0
0.0 4.8698263524017032 0.0
ITEM: ATOMS id type x y z
1 1 -9.7631085730899994e-06 1.76148399133 1.2174565880999999
2 1 1.52549547766 0.880733540567 3.6523697643
ITEM: TIMESTEP energy, energy_weight, force_weight, nsims
63 -2704.8914986999998292 1 1 99
ITEM: NUMBER OF ATOMS
2
ITEM: BOX BOUNDS xy xz yz pp pp pp
-1.6368775254692498 3.2737550509384996 -1.6368775254692498
0.0 2.8351537179890142 0.0
0.0 5.2254237670857915 0.0
ITEM: ATOMS id type x y z
1 1 -1.0476016162900002e-05 1.89010852699 1.3063559417699999
2 1 1.63688800149 0.945045191002 3.91906782531
ITEM: TIMESTEP energy, energy_weight, force_weight, nsims
64 -2703.857963920000202 1 1 99
ITEM: NUMBER OF ATOMS
2
ITEM: BOX BOUNDS xy xz yz pp pp pp
-1.7865553103489 3.5731106206978002 -1.7865553103489
0.0 3.0944031252898125 0.0
0.0 5.7032419558905172 0.0
ITEM: ATOMS id type x y z
1 1 -1.1433953986200001e-05 2.0629420182499998 1.4258104889700001
2 1 1.7865667443 1.0314611070399999 4.2774314669200004
ITEM: TIMESTEP energy, energy_weight, force_weight, nsims
65 -2703.7662253799999236 1 1 99
ITEM: NUMBER OF ATOMS
2
ITEM: BOX BOUNDS xy xz yz pp pp pp
-1.47748933807045 2.9549786761408998 -1.47748933807045
0.0 2.5590854080049228 0.0
0.0 4.7166069437943534 0.0
ITEM: ATOMS id type x y z
1 1 -9.4559317635899998e-06 1.70606239805 1.1791517359499999
2 1 1.477498794 0.853023009953 3.53745520785
ITEM: TIMESTEP energy, energy_weight, force_weight, nsims
66 -2704.6372523199997886 1 1 99
ITEM: NUMBER OF ATOMS
2
ITEM: BOX BOUNDS xy xz yz pp pp pp
-1.5463352981653498 3.0926705963306995 -1.5463352981653498
0.0 2.678330053187294 0.0
0.0 4.936384728356824 0.0
ITEM: ATOMS id type x y z
1 1 -9.8965459082000002e-06 1.7855590825600002 1.2340961820900001
2 1 1.54634519471 0.892770970625 3.7022885462700002
ITEM: TIMESTEP energy, energy_weight, force_weight, nsims
67 -2704.8955924799997774 1 1 99
ITEM: NUMBER OF ATOMS
2
ITEM: BOX BOUNDS xy xz yz pp pp pp
-1.6022693333846498 3.2045386667692997 -1.6022693333846498
0.0 2.775210598888883 0.0
0.0 5.1149436201958176 0.0
ITEM: ATOMS id type x y z
1 1 -1.0254523733600001e-05 1.8501463197100002 1.27873590505
2 1 1.60227958791 0.92506427918 3.83620771515
ITEM: TIMESTEP energy, energy_weight, force_weight, nsims
68 -2701.8191507599999568 1 1 99
ITEM: NUMBER OF ATOMS
2
ITEM: BOX BOUNDS xy xz yz pp pp pp
-1.3995679881551999 2.7991359763103998 -1.3995679881551999
0.0 2.4241217338842143 0.0
0.0 4.467857683403702 0.0
ITEM: ATOMS id type x y z
1 1 -8.9572351241400004e-06 1.61608632738 1.11696442085
2 1 1.39957694539 0.808035406502 3.3508932625500001
ITEM: TIMESTEP energy, energy_weight, force_weight, nsims
69 -2704.0937477399997988 1 1 99
ITEM: NUMBER OF ATOMS
2
ITEM: BOX BOUNDS xy xz yz pp pp pp
-1.76398590067905 3.5279718013580998 -1.76398590067905
0.0 3.0553117792711486 0.0
0.0 5.631193358568539 0.0
ITEM: ATOMS id type x y z
1 1 -1.1289509764300001e-05 2.0368810375100002 1.40779833964
2 1 1.76399719019 1.01843074176 4.2233950189299998
ITEM: TIMESTEP energy, energy_weight, force_weight, nsims
70 -2704.0336685000002034 1 1 99
ITEM: NUMBER OF ATOMS
2
ITEM: BOX BOUNDS xy xz yz pp pp pp
-1.4936557030273998 2.9873114060547996 -1.4936557030273998
0.0 2.5870863604286082 0.0
0.0 4.7682150246428048 0.0
ITEM: ATOMS id type x y z
1 1 -9.55939649932e-06 1.7247297594 1.19205375616
2 1 1.49366526242 0.862356601025 3.57616126848
ITEM: TIMESTEP energy, energy_weight, force_weight, nsims
71 -2704.2677566600000318 1 1 99
ITEM: NUMBER OF ATOMS
2
ITEM: BOX BOUNDS xy xz yz pp pp pp
-1.745755744451 3.4915114889019998 -1.745755744451
0.0 3.0237362371763545 0.0
0.0 5.5729970120798598 0.0
ITEM: ATOMS id type x y z
1 1 -1.1172836764400001e-05 2.01583060875 1.39324925302
2 1 1.7457669172900002 1.0079056284200001 4.1797477590599996
ITEM: TIMESTEP energy, energy_weight, force_weight, nsims
72 -2700.7695770000000266 1 1 99
ITEM: NUMBER OF ATOMS
2
ITEM: BOX BOUNDS xy xz yz pp pp pp
-1.3706749103597997 2.7413498207195994 -1.3706749103597997
0.0 2.3740774784886911 0.0
0.0 4.375621964440513 0.0
ITEM: ATOMS id type x y z
1 1 -8.7723194262500002e-06 1.5827233836900002 1.0939054911099999
2 1 1.37068368268 0.791354094798 3.28171647333
ITEM: TIMESTEP energy, energy_weight, force_weight, nsims
73 -2703.7587308600000144 1 1 99
ITEM: NUMBER OF ATOMS
2
ITEM: BOX BOUNDS xy xz yz pp pp pp
-1.79547194699455 3.5909438939891 -1.79547194699455
0.0 3.1098471857919106 0.0
0.0 5.731706642054065 0.0
ITEM: ATOMS id type x y z
1 1 -1.1491020460700001e-05 2.0732380915399999 1.43292666051
2 1 1.79548343802 1.0366090942599999 4.2987799815400001
ITEM: TIMESTEP energy, energy_weight, force_weight, nsims
74 -2704.3244283799999722 1 1 99
ITEM: NUMBER OF ATOMS
2
ITEM: BOX BOUNDS xy xz yz pp pp pp
-1.5149550872996498 3.0299101745992996 -1.5149550872996498
0.0 2.6239779589573584 0.0
0.0 4.8362093046477198 0.0
ITEM: ATOMS id type x y z
1 1 -9.6957125586600004e-06 1.74932423712 1.2090523261599999
2 1 1.51496478301 0.8746537218330002 3.62715697849
ITEM: TIMESTEP energy, energy_weight, force_weight, nsims
75 -2704.7640786400002072 1 1 99
ITEM: NUMBER OF ATOMS
2
ITEM: BOX BOUNDS xy xz yz pp pp pp
-1.6755339235087 3.3510678470173998 -1.6755339235087
0.0 2.9021085322132438 0.0
0.0 5.3488270504239042 0.0