ITEM: TIMESTEP energy, energy_weight, force_weight, nsims
0 -4057.3595166900001914 1 1 878
ITEM: NUMBER OF ATOMS
3
ITEM: BOX BOUNDS xy xz yz pp pp pp
-2.5195187179387998 5.0390374358775993 -2.5195187179387998
0.0 4.3984904346859253 0.0
0.0 3.135604829289202 0.0345572959475181
ITEM: ATOMS id type x y z
1 1 0.0 0.0 0.0
2 1 -2.97303208717e-05 2.926584571933319 1.5678024146450316
3 1 2.5195484482600002 1.4719058627457296 1.5678024146404932
ITEM: TIMESTEP energy, energy_weight, force_weight, nsims
1 -4057.3590667500000108 1 1 878
ITEM: NUMBER OF ATOMS
3
ITEM: BOX BOUNDS xy xz yz pp pp pp
-2.5195204151351502 5.0812730496504521 -2.5195204151351502
0.0 4.3639342178457357 0.0422372243653727
0.0 3.1355090965759422 1.8224390996460864e-06
ITEM: ATOMS id type x y z
1 1 0.0 0.0 0.0
2 1 0.0210872135331381 2.9093063396200418 1.5677545482913624
3 1 2.540665420979655 1.454627878219796 1.5677545482880328
ITEM: TIMESTEP energy, energy_weight, force_weight, nsims
2 -4057.3135844099997486 1 1 878
ITEM: NUMBER OF ATOMS
3
ITEM: BOX BOUNDS xy xz yz pp pp pp
-2.62231139855705 5.2446227971140998 -2.62231139855705
0.0 4.3639247585315122 0.0
0.0 3.1357861935085061 0.0
ITEM: ATOMS id type x y z
1 1 0.0 0.0 0.0
2 1 -3.0943274503000002e-05 2.90930033713 1.56789309675
3 1 2.62234234183 1.45462442141 1.56789309675
ITEM: TIMESTEP energy, energy_weight, force_weight, nsims
3 -4057.3451507999998284 1 1 878
ITEM: NUMBER OF ATOMS
3
ITEM: BOX BOUNDS xy xz yz pp pp pp
-2.5195205452177706 5.1811090730550396 -2.5195205452177706
0.0 4.3639342445152183 0.1420729061835926
0.0 3.1325718018287119 1.8491085603085748e-06
ITEM: ATOMS id type x y z
1 1 0.0 0.0 0.0
2 1 0.0710050815807181 2.9093063529547862 1.566285900916196
3 1 2.590583446256173 1.4546278915545332 1.5662859009171422
ITEM: TIMESTEP energy, energy_weight, force_weight, nsims
4 -4057.3465659000003144 1 1 878
ITEM: NUMBER OF ATOMS
3
ITEM: BOX BOUNDS xy xz yz pp pp pp
-2.4728188257145498 4.9456376514290996 -2.4728188257145498
0.0 4.4433834197382174 0.0
0.0 3.1358062810768779 0.0
ITEM: ATOMS id type x y z
1 1 0.0 0.0 0.0
2 1 -2.91792621434e-05 2.96227309047 1.56790314054
3 1 2.47284800498 1.4811103292700004 1.56790314054
ITEM: TIMESTEP energy, energy_weight, force_weight, nsims
5 -4057.3389089399997831 1 1 878
ITEM: NUMBER OF ATOMS
3
ITEM: BOX BOUNDS xy xz yz pp pp pp
-2.5195187179387998 5.0390374358775993 -2.5195187179387998
0.0 4.532882880403414 0.0
0.0 3.1312384838269729 0.1689478749569896
ITEM: ATOMS id type x y z
1 1 0.0 0.0 0.0
2 1 -2.97303208717e-05 2.9937811059226584 1.5656192419105388
3 1 2.5195484482600002 1.539101774479933 1.5656192419118218
ITEM: TIMESTEP energy, energy_weight, force_weight, nsims
6 -4057.360179810000318 1 1 878
ITEM: NUMBER OF ATOMS
3
ITEM: BOX BOUNDS xy xz yz pp pp pp
-2.51335380298795 5.0267076059758997 -2.51335380298795
0.0 4.3746330419134942 0.0
0.0 3.1358110058359454 0.0
ITEM: ATOMS id type x y z
1 1 0.0 0.0 0.0
2 1 -2.96575748753e-05 2.9164392348299998 1.56790550292
3 1 2.5133834605600002 1.45819380708 1.56790550292
ITEM: TIMESTEP energy, energy_weight, force_weight, nsims
7 -4057.356817590000219 1 1 878
ITEM: NUMBER OF ATOMS
3
ITEM: BOX BOUNDS xy xz yz pp pp pp
-2.5195187179387998 5.0390374358775993 -2.5195187179387998
0.0 4.3317531023403842 0.0
0.0 3.13579299634663 0.0
ITEM: ATOMS id type x y z
1 1 0.0 0.0 0.0
2 1 -2.97303208717e-05 2.8878524397900002 1.5678964981700002
3 1 2.5195484482600002 1.44390066255 1.5678964981700002
ITEM: TIMESTEP energy, energy_weight, force_weight, nsims
8 -4057.3399522199999865 1 1 878
ITEM: NUMBER OF ATOMS
3
ITEM: BOX BOUNDS xy xz yz pp pp pp
-2.5195187179387998 5.0390374358775993 -2.5195187179387998
0.0 4.4851514799633696 0.0
0.0 3.13579299634663 0.0
ITEM: ATOMS id type x y z
1 1 0.0 0.0 0.0
2 1 -2.97303208717e-05 2.9901186282399998 1.5678964981700002
3 1 2.5195484482600002 1.49503285173 1.5678964981700002
ITEM: TIMESTEP energy, energy_weight, force_weight, nsims
9 -4057.3489745100000618 1 1 878
ITEM: NUMBER OF ATOMS
3
ITEM: BOX BOUNDS xy xz yz pp pp pp
-2.5195187179387998 5.0390374358775993 -2.5195187179387998
0.0 4.4868030031174132 0.0
0.0 3.1333873242727823 0.1228691875238999
ITEM: ATOMS id type x y z
1 1 0.0 0.0 0.0
2 1 -2.97303208717e-05 2.9707409689592032 1.5666936621403462
3 1 2.5195484482600002 1.5160620341536046 1.5666936621339232
ITEM: TIMESTEP energy, energy_weight, force_weight, nsims
10 -4057.339862009999706 1 1 878
ITEM: NUMBER OF ATOMS
3
ITEM: BOX BOUNDS xy xz yz pp pp pp
-2.684632596688335 5.0390366933879758 -2.5195208653388042
-4.7613912645781644e-08 4.3639323954058984 -0.1651117313495305
0.0 3.1314423303013581 -4.7613912645781644e-08
ITEM: ATOMS id type x y z
1 1 0.0 0.0 0.0
2 1 -0.0825872750977556 2.9093054045930442 1.5657211651527082
3 1 2.4369913717971024 1.4546269431930444 1.5657211651538004
ITEM: TIMESTEP energy, energy_weight, force_weight, nsims
11 -4057.3581882300002238 1 1 878
ITEM: NUMBER OF ATOMS
3
ITEM: BOX BOUNDS xy xz yz pp pp pp
-2.5379605450664498 5.0759210901328995 -2.5379605450664498
0.0 4.3317504509506959 0.0
0.0 3.1357923792201228 0.0
ITEM: ATOMS id type x y z
1 1 0.0 0.0 0.0
2 1 -2.9947934431799998e-05 2.88785067219 1.5678961896100002
3 1 2.5379904930000002 1.4438997787700001 1.5678961896100002
ITEM: TIMESTEP energy, energy_weight, force_weight, nsims
12 -4057.3369369499998812 1 1 878
ITEM: NUMBER OF ATOMS
3
ITEM: BOX BOUNDS xy xz yz pp pp pp
-2.5195187179387998 5.0390374358775993 -2.5195187179387998
0.0 4.5405656909252654 0.0
0.0 3.1308147677811755 0.1766292676107781
ITEM: ATOMS id type x y z
1 1 0.0 0.0 0.0
2 1 -2.97303208717e-05 2.9976227474939124 1.5654073838872316
3 1 2.5195484482600002 1.5429429434225722 1.5654073838888084
ITEM: TIMESTEP energy, energy_weight, force_weight, nsims
13 -4057.3165671599999769 1 1 878
ITEM: NUMBER OF ATOMS
3
ITEM: BOX BOUNDS xy xz yz pp pp pp
-2.44117402622435 4.8823480524487 -2.44117402622435
0.0 4.3639354538916449 0.0
0.0 3.1357954483423312 0.0
ITEM: ATOMS id type x y z
1 1 0.0 0.0 0.0
2 1 -2.8805853509500002e-05 2.9093074674100002 1.5678977241700004
3 1 2.4412028320800001 1.45462798648 1.5678977241700004
ITEM: TIMESTEP energy, energy_weight, force_weight, nsims
14 -4057.225235189999694 1 1 878
ITEM: NUMBER OF ATOMS
3
ITEM: BOX BOUNDS xy xz yz pp pp pp
-2.3667981638773999 4.7335963277547998 -2.3667981638773999
0.0 4.613291977084912 0.0
0.0 3.1357850881101501 0.0
ITEM: ATOMS id type x y z
1 1 0.0 0.0 0.0
2 1 -2.7928218333800002e-05 3.0755461303399998 1.56789254406
3 1 2.3668260921000002 1.53774584675 1.56789254406
ITEM: TIMESTEP energy, energy_weight, force_weight, nsims
15 -4057.3588080900001386 1 1 878
ITEM: NUMBER OF ATOMS
3
ITEM: BOX BOUNDS xy xz yz pp pp pp
-2.5195212296193216 5.0851132826873347 -2.5195212296193216
-1.796906923253037e-06 4.3639323954066143 0.0460758993719349
0.0 3.1354534376112717 -1.796906923253037e-06
ITEM: ATOMS id type x y z
1 1 0.0 0.0 0.0
2 1 0.0230065273810201 2.9093045299470152 1.5677267188082482
3 1 2.542585525686647 1.454626068546777 1.5677267188008268
ITEM: TIMESTEP energy, energy_weight, force_weight, nsims
16 -4057.3537761900001896 1 1 878
ITEM: NUMBER OF ATOMS
3
ITEM: BOX BOUNDS xy xz yz pp pp pp
-2.50404028340555 5.0080805668110999 -2.50404028340555
0.0 4.3371229728725833 0.0
0.0 3.1357846065059358 0.0
ITEM: ATOMS id type x y z
1 1 0.0 0.0 0.0
2 1 -2.9547675344200002e-05 2.8914323746 1.5678923032500004
3 1 2.5040698310799998 1.4456905982699999 1.5678923032500004
ITEM: TIMESTEP energy, energy_weight, force_weight, nsims
17 -4057.3368554399996811 1 1 878
ITEM: NUMBER OF ATOMS
3
ITEM: BOX BOUNDS xy xz yz pp pp pp
-2.3805825311970503 5.1388714246300733 -2.3805825311970503
0.0 4.4584257141326322 0.0998359637834275
0.0 3.1327127299808058 0.0967047636640679
ITEM: ATOMS id type x y z
1 1 0.0 0.0 0.0
2 1 0.14251226421186 2.9561835049143376 1.566356364994124
3 1 2.6157766292211244 1.5022422092204334 1.566356364986343
ITEM: TIMESTEP energy, energy_weight, force_weight, nsims
18 -4057.3501198199996907 1 1 878
ITEM: NUMBER OF ATOMS
3
ITEM: BOX BOUNDS xy xz yz pp pp pp
-2.5714310060657 5.1428620121313999 -2.5714310060657
0.0 4.3639344174980028 0.0
0.0 3.1357932546909635 0.0
ITEM: ATOMS id type x y z
1 1 0.0 0.0 0.0
2 1 -3.0342885871599998e-05 2.9093067764699998 1.56789662735
3 1 2.5714613489499998 1.4546276410200004 1.56789662735
ITEM: TIMESTEP energy, energy_weight, force_weight, nsims
19 -4057.3550927999999658 1 1 878
ITEM: NUMBER OF ATOMS
3
ITEM: BOX BOUNDS xy xz yz pp pp pp
-2.5195187179387998 5.0390374358775993 -2.5195187179387998
0.0 4.4328563494538322 0.0
0.0 3.13579299634663 0.0
ITEM: ATOMS id type x y z
1 1 0.0 0.0 0.0
2 1 -2.97303208717e-05 2.9552550022 1.5678964981700002
3 1 2.5195484482600002 1.47760134725 1.5678964981700002
ITEM: TIMESTEP energy, energy_weight, force_weight, nsims
20 -4057.3415095200000453 1 1 878
ITEM: NUMBER OF ATOMS
3
ITEM: BOX BOUNDS xy xz yz pp pp pp
-2.3324941170681935 5.0390359906537405 -2.3324941170681935
0.0 4.3599251951739326 0.0
0.0 3.13579299634663 0.0
ITEM: ATOMS id type x y z
1 1 0.0 0.0 0.0
2 1 0.1246535908207469 2.9066339458219956 1.5678964981700002
3 1 2.5818882827662418 1.4532912493554488 1.5678964981700002
ITEM: TIMESTEP energy, energy_weight, force_weight, nsims
21 -4057.2197262600002433 1 1 878
ITEM: NUMBER OF ATOMS
3
ITEM: BOX BOUNDS xy xz yz pp pp pp
-2.3766408607087999 4.7532817214175998 -2.3766408607087999
0.0 4.363940415616284 0.0
0.0 3.1357969909998476 0.0
ITEM: ATOMS id type x y z
1 1 0.0 0.0 0.0
2 1 -2.80443621564e-05 2.9093107752399998 1.5678984955
3 1 2.3766689050699999 1.4546296403700004 1.5678984955
ITEM: TIMESTEP energy, energy_weight, force_weight, nsims
22 -4057.3515008100000618 1 1 878
ITEM: NUMBER OF ATOMS
3
ITEM: BOX BOUNDS xy xz yz pp pp pp
-2.5195187179387998 5.0390374358775993 -2.5195187179387998
0.0 4.4486083804783849 0.0
0.0 3.13579299634663 0.0
ITEM: ATOMS id type x y z
1 1 0.0 0.0 0.0
2 1 -2.97303208717e-05 2.9657564181799998 1.5678964981700002
3 1 2.5195484482600002 1.4828519623 1.5678964981700002
ITEM: TIMESTEP energy, energy_weight, force_weight, nsims
23 -4057.3588079700000438 1 1 878
ITEM: NUMBER OF ATOMS
3
ITEM: BOX BOUNDS xy xz yz pp pp pp
-2.5195187179387998 5.0390374358775993 -2.5195187179387998
0.0 4.4100113169633639 0.0
0.0 3.1354534210383132 0.0460770271788766
ITEM: ATOMS id type x y z
1 1 0.0 0.0 0.0
2 1 -2.9730320871700008e-05 2.9323452049240508 1.567726710515008
3 1 2.519548448260001 1.4776661120475732 1.5677267105185358
ITEM: TIMESTEP energy, energy_weight, force_weight, nsims
24 -4057.3472830499999874 1 1 878
ITEM: NUMBER OF ATOMS
3
ITEM: BOX BOUNDS xy xz yz pp pp pp
-2.5195187179387998 5.0390374358775993 -2.5195187179387998
0.0 4.2939048921595067 0.0
0.0 3.13579299634663 0.0
ITEM: ATOMS id type x y z
1 1 0.0 0.0 0.0
2 1 -2.97303208717e-05 2.8626201508000002 1.5678964981700002
3 1 2.5195484482600002 1.4312847413600001 1.5678964981700002
ITEM: TIMESTEP energy, energy_weight, force_weight, nsims
25 -4057.2983525399999964 1 1 878
ITEM: NUMBER OF ATOMS
3
ITEM: BOX BOUNDS xy xz yz pp pp pp
-2.5195187179387998 5.0390374358775993 -2.5195187179387998
0.0 4.5675850933768914 0.0
0.0 3.13579299634663 0.0
ITEM: ATOMS id type x y z
1 1 0.0 0.0 0.0
2 1 -2.97303208717e-05 3.0450746947499998 1.5678964981700002
3 1 2.5195484482600002 1.52251039862 1.5678964981700002
ITEM: TIMESTEP energy, energy_weight, force_weight, nsims
26 -4057.3577038799996898 1 1 878
ITEM: NUMBER OF ATOMS
3
ITEM: BOX BOUNDS xy xz yz pp pp pp
-2.50404028340555 5.0080805668110999 -2.50404028340555
0.0 4.3639262200661557 0.0
0.0 3.1357846065059358 0.0
ITEM: ATOMS id type x y z
1 1 0.0 0.0 0.0
2 1 -2.9547675344200002e-05 2.9093013114900002 1.5678923032500004
3 1 2.5040698310799998 1.45462490858 1.5678923032500004
ITEM: TIMESTEP energy, energy_weight, force_weight, nsims
27 -4057.360745940000243 1 1 878
ITEM: NUMBER OF ATOMS
3
ITEM: BOX BOUNDS xy xz yz pp pp pp
-2.52568363288965 5.0513672657792998 -2.52568363288965
0.0 4.3639367973139267 0.0
0.0 3.135797873985005 0.0
ITEM: ATOMS id type x y z
1 1 0.0 0.0 0.0
2 1 -2.9803066868100002e-05 2.90930836303 1.56789893699
3 1 2.5257134359600002 1.45462843429 1.56789893699
ITEM: TIMESTEP energy, energy_weight, force_weight, nsims
28 -4057.2486441599999127 1 1 878
ITEM: NUMBER OF ATOMS
3
ITEM: BOX BOUNDS xy xz yz pp pp pp
-2.44434908971835 4.8886981794367 -2.44434908971835
0.0 4.233734840846668 0.0
0.0 3.1357870054251591 0.0
ITEM: ATOMS id type x y z
1 1 0.0 0.0 0.0
2 1 -2.8843319258700002e-05 2.8225065465900002 1.5678935027100004
3 1 2.4443779330400002 1.4112282942600001 1.5678935027100004
ITEM: TIMESTEP energy, energy_weight, force_weight, nsims
29 -4057.3337367599997378 1 1 878
ITEM: NUMBER OF ATOMS
3
ITEM: BOX BOUNDS xy xz yz pp pp pp
-2.59849842235205 5.1969968447041 -2.59849842235205
0.0 4.3639390384854116 0.0
0.0 3.1358003351354729 0.0
ITEM: ATOMS id type x y z
1 1 0.0 0.0 0.0
2 1 -3.0662281383800001e-05 2.9093098571499998 1.56790016757
3 1 2.59852908463 1.4546291813300004 1.56790016757
ITEM: TIMESTEP energy, energy_weight, force_weight, nsims
30 -4057.2045014400002856 1 1 878
ITEM: NUMBER OF ATOMS
3
ITEM: BOX BOUNDS xy xz yz pp pp pp
-2.5195187179387998 5.0390374358775993 -2.5195187179387998
0.0 4.1051123155869167 0.0
0.0 3.13579299634663 0.0
ITEM: ATOMS id type x y z
1 1 0.0 0.0 0.0
2 1 -2.97303208717e-05 2.7367576905000002 1.5678964981700002
3 1 2.5195484482600002 1.3683546250900001 1.5678964981700002
ITEM: TIMESTEP energy, energy_weight, force_weight, nsims
31 -4057.1047961700000996 1 1 878
ITEM: NUMBER OF ATOMS
3
ITEM: BOX BOUNDS xy xz yz pp pp pp
-2.6576604387902498 5.3153208775804997 -2.6576604387902498
0.0 4.6032007630066528 0.0
0.0 3.1358054436538816 0.0
ITEM: ATOMS id type x y z
1 1 0.0 0.0 0.0
2 1 -3.1360393177699999e-05 3.0688186145900001 1.56790272183
3 1 2.6576917991800002 1.53438214841 1.56790272183
ITEM: TIMESTEP energy, energy_weight, force_weight, nsims
32 -4057.3591698600002928 1 1 878
ITEM: NUMBER OF ATOMS
3
ITEM: BOX BOUNDS xy xz yz pp pp pp
-2.567607476219059 5.0390383437231003 -2.567607476219059
0.0 4.3636681625897582 0.0
0.0 3.13579299634663 0.0
ITEM: ATOMS id type x y z
1 1 0.0 0.0 0.0
2 1 -0.0320887890452187 2.9091292721512966 1.5678964981700002
3 1 2.5035196565459374 1.454538890435054 1.5678964981700002
ITEM: TIMESTEP energy, energy_weight, force_weight, nsims
33 -4057.3098654600000828 1 1 878
ITEM: NUMBER OF ATOMS
3
ITEM: BOX BOUNDS xy xz yz pp pp pp
-2.4866528406082278 5.1873105358928529 -2.4866528406082278
0.0 4.4982299973570178 0.0565677322983612
0.0 3.1918791526252752 0.0555730148434801
ITEM: ATOMS id type x y z
1 1 0.0 0.0 0.0
2 1 0.0807329451856528 2.9895753035440662 1.5959395763155706
3 1 2.619924750103964 1.50865469381264 1.595939576309749
ITEM: TIMESTEP energy, energy_weight, force_weight, nsims
34 -4057.3459592399999565 1 1 878
ITEM: NUMBER OF ATOMS
3
ITEM: BOX BOUNDS xy xz yz pp pp pp
-2.5195187179387998 5.0390374358775993 -2.5195187179387998
0.0 4.5021657351285534 0.0
0.0 3.1327460070536022 0.1382308486458773
ITEM: ATOMS id type x y z
1 1 0.0 0.0 0.0
2 1 -2.9730320871700008e-05 2.9784225134525344 1.5663730035304716
3 1 2.519548448260001 1.5237432216689176 1.5663730035262654
ITEM: TIMESTEP energy, energy_weight, force_weight, nsims
35 -4056.9379169700002877 1 1 878
ITEM: NUMBER OF ATOMS
3
ITEM: BOX BOUNDS xy xz yz pp pp pp
-2.4302945899997162 5.454747419193219 -2.4302945899997162
0.0 4.7324703175595194 0.1570484357566731
0.0 3.2896113031977676 0.1497357559209096
ITEM: ATOMS id type x y z
1 1 0.0 0.0 0.0
2 1 0.2241970889161797 3.1300422778073691 1.644805651603492
3 1 2.8002557402800794 1.602428039749196 1.6448056515950282
ITEM: TIMESTEP energy, energy_weight, force_weight, nsims
36 -4057.3564633199998752 1 1 878
ITEM: NUMBER OF ATOMS
3
ITEM: BOX BOUNDS xy xz yz pp pp pp
-2.4947267638231496 4.9894535276462992 -2.4947267638231496
0.0 4.4064957563831611 0.0
0.0 3.1358066792298396 0.0
ITEM: ATOMS id type x y z
1 1 0.0 0.0 0.0
2 1 -2.94377758131e-05 2.9376811698099998 1.56790333961
3 1 2.4947562016 1.46881458658 1.56790333961
ITEM: TIMESTEP energy, energy_weight, force_weight, nsims
37 -4057.3520964600002118 1 1 878
ITEM: NUMBER OF ATOMS
3
ITEM: BOX BOUNDS xy xz yz pp pp pp
-2.5195187179387998 5.0390374358775993 -2.5195187179387998
0.0 4.3101658659650841 0.0
0.0 3.13579299634663 0.0
ITEM: ATOMS id type x y z
1 1 0.0 0.0 0.0
2 1 -2.97303208717e-05 2.8734608639600002 1.5678964981700002
3 1 2.5195484482600002 1.4367050020000001 1.5678964981700002
ITEM: TIMESTEP energy, energy_weight, force_weight, nsims
38 -4057.243087379999679 1 1 878
ITEM: NUMBER OF ATOMS
3
ITEM: BOX BOUNDS xy xz yz pp pp pp
-2.6134212207738496 5.2268424415476993 -2.6134212207738496
0.0 4.526576225441347 0.0
0.0 3.1358075349094512 0.0
ITEM: ATOMS id type x y z
1 1 0.0 0.0 0.0
2 1 -3.0838370405100002e-05 3.0177352881599999 1.56790376745
3 1 2.6134520591400002 1.50884093728 1.56790376745
ITEM: TIMESTEP energy, energy_weight, force_weight, nsims
39 -4057.3585495800000444 1 1 878
ITEM: NUMBER OF ATOMS
3
ITEM: BOX BOUNDS xy xz yz pp pp pp
-2.5471417703365998 5.0942835406731994 -2.5471417703365998
0.0 4.3639466751481271 0.0
0.0 3.1358015163120099 0.0
ITEM: ATOMS id type x y z
1 1 0.0 0.0 0.0
2 1 -3.005627289e-05 2.90931494829 1.56790075816
3 1 2.5471718266100002 1.45463172686 1.56790075816
ITEM: TIMESTEP energy, energy_weight, force_weight, nsims
40 -4057.2650111699997525 1 1 878
ITEM: NUMBER OF ATOMS
3
ITEM: BOX BOUNDS xy xz yz pp pp pp
-2.3929395199779999 4.7858790399559998 -2.3929395199779999
0.0 4.5726968440002 0.0
0.0 3.1357988786809301 0.0
ITEM: ATOMS id type x y z
1 1 0.0 0.0 0.0
2 1 -2.8236686335800002e-05 3.04848254861 1.5678994393400002
3 1 2.3929677566600001 1.52421429539 1.5678994393400002
ITEM: TIMESTEP energy, energy_weight, force_weight, nsims
41 -4057.2079752299998746 1 1 878
ITEM: NUMBER OF ATOMS
3
ITEM: BOX BOUNDS xy xz yz pp pp pp
-2.5195187179387998 5.0390374358775993 -2.5195187179387998
0.0 4.3639323954058984 0.0
0.0 2.9742011438529072 0.0
ITEM: ATOMS id type x y z
1 1 0.0 0.0 0.0
2 1 -2.97303208717e-05 2.9093054284000002 1.48710057193
3 1 2.5195484482600002 1.454626967 1.48710057193
ITEM: TIMESTEP energy, energy_weight, force_weight, nsims
42 -4057.2867371399997864 1 1 878
ITEM: NUMBER OF ATOMS
3
ITEM: BOX BOUNDS xy xz yz pp pp pp
-2.4091323437974 4.8182646875948 -2.4091323437974
0.0 4.5471361153591534 0.0
0.0 3.1358085691863846 0.0
ITEM: ATOMS id type x y z
1 1 0.0 0.0 0.0
2 1 -2.8427761656799998e-05 3.0314419623100002 1.56790428459
3 1 2.4091607715599999 1.5156941530500002 1.56790428459
ITEM: TIMESTEP energy, energy_weight, force_weight, nsims
43 -4057.3474166700002571 1 1 878
ITEM: NUMBER OF ATOMS
3
ITEM: BOX BOUNDS xy xz yz pp pp pp
-2.6744836291297758 5.0390358524303824 -2.6744836291297758
0.0 4.3611829011711194 0.0
0.0 3.13579299634663 0.0
ITEM: ATOMS id type x y z
1 1 0.0 0.0 0.0
2 1 -0.1033408084530114 2.9074724214308336 1.5678964981700002
3 1 2.4678930317491412 1.4537104797387442 1.5678964981700002
ITEM: TIMESTEP energy, energy_weight, force_weight, nsims
44 -4057.2907773299998554 1 1 878
ITEM: NUMBER OF ATOMS
3
ITEM: BOX BOUNDS xy xz yz pp pp pp
-2.4123338661538498 4.8246677323076996 -2.4123338661538498
0.0 4.5419615018653978 0.0
0.0 3.1357783186101926 0.0
ITEM: ATOMS id type x y z
1 1 0.0 0.0 0.0
2 1 -2.8465539620600002e-05 3.0279921996299999 1.56788915931
3 1 2.4123623316899998 1.51396930224 1.56788915931
ITEM: TIMESTEP energy, energy_weight, force_weight, nsims
45 -4057.3385538300001371 1 1 878
ITEM: NUMBER OF ATOMS
3
ITEM: BOX BOUNDS xy xz yz pp pp pp
-2.3859298597277219 5.1350280753526638 -2.3859298597277219
0.0 4.4549819327191128 0.0959912224085853
0.0 3.1329389356784221 0.0930949857619174
ITEM: ATOMS id type x y z
1 1 0.0 0.0 0.0
2 1 0.1370254508315112 2.9544892809429752 1.566469467841853
3 1 2.6120727647982652 1.5004926517807926 1.566469467838924
ITEM: TIMESTEP energy, energy_weight, force_weight, nsims
46 -4057.3584743399997024 1 1 878
ITEM: NUMBER OF ATOMS
3
ITEM: BOX BOUNDS xy xz yz pp pp pp
-2.5071359703121998 5.0142719406243996 -2.5071359703121998
0.0 4.3639158556534748 0.0
0.0 3.1357802577802216 0.0
ITEM: ATOMS id type x y z
1 1 0.0 0.0 0.0
2 1 -2.9584204449700002e-05 2.90929440184 1.56789012889
3 1 2.5071655545199998 1.45462145382 1.56789012889
ITEM: TIMESTEP energy, energy_weight, force_weight, nsims
47 -4057.3535892600002628 1 1 878
ITEM: NUMBER OF ATOMS
3
ITEM: BOX BOUNDS xy xz yz pp pp pp
-2.4073034563904732 5.0390357605309069 -2.4073034563904732
0.0 4.3624924067823594 0.0
0.0 3.13579299634663 0.0
ITEM: ATOMS id type x y z
1 1 0.0 0.0 0.0
2 1 0.0747803269824002 2.9083454303286862 1.5678964981700006
3 1 2.5569519771551956 1.454146976460504 1.5678964981700006
ITEM: TIMESTEP energy, energy_weight, force_weight, nsims
48 -4057.3382683799998176 1 1 878
ITEM: NUMBER OF ATOMS
3
ITEM: BOX BOUNDS xy xz yz pp pp pp
-2.4601979483258996 4.9203958966517992 -2.4601979483258996
0.0 4.464299799011661 0.0
0.0 3.135787986519778 0.0
ITEM: ATOMS id type x y z
1 1 0.0 0.0 0.0
2 1 -2.9030335790300002e-05 2.9762174255899998 1.56789399326
3 1 2.4602269786600002 1.48808237342 1.56789399326
ITEM: TIMESTEP energy, energy_weight, force_weight, nsims
49 -4057.3470870000003288 1 1 878
ITEM: NUMBER OF ATOMS
3
ITEM: BOX BOUNDS xy xz yz pp pp pp
-2.5774636267042998 5.1549272534085997 -2.5774636267042998
0.0 4.3639242860820638 0.0
0.0 3.1357834876664783 0.0
ITEM: ATOMS id type x y z
1 1 0.0 0.0 0.0
2 1 -3.0414070795099999e-05 2.90930002216 1.56789174383
3 1 2.57749404078 1.45462426393 1.56789174383
ITEM: TIMESTEP energy, energy_weight, force_weight, nsims
50 -4057.357379099999889 1 1 878
ITEM: NUMBER OF ATOMS
3
ITEM: BOX BOUNDS xy xz yz pp pp pp
-2.5410297731106498 5.0820595462212994 -2.5410297731106498
0.0 4.3263776199363768 0.0
0.0 3.1358035300431131 0.0
ITEM: ATOMS id type x y z
1 1 0.0 0.0 0.0
2 1 -2.9984151322699998e-05 2.8842687637100002 1.56790176502
3 1 2.5410597572600002 1.44210885623 1.56790176502
ITEM: TIMESTEP energy, energy_weight, force_weight, nsims
51 -4057.3507477199998449 1 1 878
ITEM: NUMBER OF ATOMS
3
ITEM: BOX BOUNDS xy xz yz pp pp pp
-2.6531066041320348 5.0390383140633306 -2.6531066041320348
0.0 4.3618895975096717 0.0
0.0 3.13579299634663 0.0
ITEM: ATOMS id type x y z
1 1 0.0 0.0 0.0
2 1 -0.0890885538369354 2.9079435551082832 1.5678964981700002
3 1 2.4750202637699528 1.4539460424007478 1.5678964981700002
ITEM: TIMESTEP energy, energy_weight, force_weight, nsims
52 -4057.3012687499999631 1 1 878
ITEM: NUMBER OF ATOMS
3
ITEM: BOX BOUNDS xy xz yz pp pp pp
-2.6134212207738496 5.2268424415476993 -2.6134212207738496
0.0 4.1950323825315339 0.0
0.0 3.1358075349094512 0.0
ITEM: ATOMS id type x y z
1 1 0.0 0.0 0.0
2 1 -3.0838370405100002e-05 2.79670475548 1.56790376745
3 1 2.6134520591400002 1.39832762705 1.56790376745
ITEM: TIMESTEP energy, energy_weight, force_weight, nsims
53 -4057.226041860000123 1 1 878
ITEM: NUMBER OF ATOMS
3
ITEM: BOX BOUNDS xy xz yz pp pp pp
-2.37989530079015 4.7597906015803 -2.37989530079015
0.0 4.3639188172468666 0.0
0.0 3.1357786070647111 0.0
ITEM: ATOMS id type x y z
1 1 0.0 0.0 0.0
2 1 -2.8082764549299998e-05 2.90929637625 1.56788930353
3 1 2.37992338355 1.454622441 1.56788930353
ITEM: TIMESTEP energy, energy_weight, force_weight, nsims
54 -4057.2305292599999121 1 1 878
ITEM: NUMBER OF ATOMS
3
ITEM: BOX BOUNDS xy xz yz pp pp pp
-2.3700790628211999 4.7401581256423998 -2.3700790628211999
0.0 4.6082300446895204 0.0
0.0 3.1357852458049704 0.0
ITEM: ATOMS id type x y z
1 1 0.0 0.0 0.0
2 1 -2.7966932941299998e-05 3.07217148883 1.5678926229000004
3 1 2.3701070297500002 1.53605855586 1.5678926229000004
ITEM: TIMESTEP energy, energy_weight, force_weight, nsims
55 -4057.316069609999886 1 1 878
ITEM: NUMBER OF ATOMS
3
ITEM: BOX BOUNDS xy xz yz pp pp pp
-2.4347974403738997 4.8695948807477994 -2.4347974403738997
0.0 4.5059043174842692 0.0
0.0 3.1357951018370685 0.0
ITEM: ATOMS id type x y z
1 1 0.0 0.0 0.0
2 1 -2.87306097964e-05 3.0039539348800002 1.56789755092
3 1 2.4348261709800001 1.5019503826 1.56789755092
ITEM: TIMESTEP energy, energy_weight, force_weight, nsims
56 -4057.2820449900002586 1 1 878
ITEM: NUMBER OF ATOMS
3
ITEM: BOX BOUNDS xy xz yz pp pp pp
-2.5195187179387998 5.0390374358775993 -2.5195187179387998
0.0 4.3639323954058984 0.0
0.0 3.2931167841321649 0.0
ITEM: ATOMS id type x y z
1 1 0.0 0.0 0.0
2 1 -2.97303208717e-05 2.9093054284000002 1.64655839207
3 1 2.5195484482600002 1.454626967 1.64655839207
ITEM: TIMESTEP energy, energy_weight, force_weight, nsims
57 -4057.3578978899997768 1 1 878
ITEM: NUMBER OF ATOMS
3
ITEM: BOX BOUNDS xy xz yz pp pp pp
-2.5195187179387998 5.0390374358775993 -2.5195187179387998
-0.0575963302762005 4.3639350533682366 0.0
0.0 3.135265228760006 -0.0575963302762005
ITEM: ATOMS id type x y z
1 1 0.0 0.0 0.0
2 1 -2.9730320871700008e-05 2.8805090352522864 1.5676326143766528
3 1 2.519548448260001 1.4258296878376602 1.5676326143750074
ITEM: TIMESTEP energy, energy_weight, force_weight, nsims
58 -4057.3608773699997984 1 1 878
ITEM: NUMBER OF ATOMS
3
ITEM: BOX BOUNDS xy xz yz pp pp pp
-2.52568363288965 5.0513672657792998 -2.52568363288965
0.0 4.3746103363465183 0.0
0.0 3.135797873985005 0.0
ITEM: ATOMS id type x y z
1 1 0.0 0.0 0.0
2 1 -2.9803066868100002e-05 2.9164240977000002 1.56789893699
3 1 2.5257134359600002 1.45818623865 1.56789893699
ITEM: TIMESTEP energy, energy_weight, force_weight, nsims
59 -4057.3569343199997096 1 1 878
ITEM: NUMBER OF ATOMS
3
ITEM: BOX BOUNDS xy xz yz pp pp pp
-2.4393636603116282 5.0390383117126207 -2.4393636603116282
0.0 4.36319885480252 0.0
0.0 3.13579299634663 0.0
ITEM: ATOMS id type x y z
1 1 0.0 0.0 0.0
2 1 0.0534075819820394 2.9088163984510778 1.5678964981700002
3 1 2.546267069422401 1.4543824563476546 1.5678964981700002
ITEM: TIMESTEP energy, energy_weight, force_weight, nsims
60 -4057.3367332800003171 1 1 878
ITEM: NUMBER OF ATOMS
3
ITEM: BOX BOUNDS xy xz yz pp pp pp
-2.5195187179387998 5.0390374358775993 -2.5195187179387998
0.0 4.266663855781153 0.0
0.0 3.13579299634663 0.0
ITEM: ATOMS id type x y z
1 1 0.0 0.0 0.0
2 1 -2.97303208717e-05 2.84445935273 1.5678964981700002
3 1 2.5195484482600002 1.4222045030499999 1.5678964981700002
ITEM: TIMESTEP energy, energy_weight, force_weight, nsims
61 -4057.3168851300001734 1 1 878
ITEM: NUMBER OF ATOMS
3
ITEM: BOX BOUNDS xy xz yz pp pp pp
-2.3271497523123497 5.1772649051068323 -2.3271497523123497
0.0 4.491956480276456 0.1382278710572116
0.0 3.1299524337126576 0.1322627465298087
ITEM: ATOMS id type x y z
1 1 0.0 0.0 0.0
2 1 0.1973308050022701 2.9726110105561712 1.5649762168590032
3 1 2.652784347796747 1.5193454697203086 1.5649762168611028
ITEM: TIMESTEP energy, energy_weight, force_weight, nsims
62 -4057.3291718100001617 1 1 878
ITEM: NUMBER OF ATOMS
3
ITEM: BOX BOUNDS xy xz yz pp pp pp
-2.6044781252657502 5.2089562505315001 -2.6044781252657502
0.0 4.3639489496577788 0.0
0.0 3.1358020807324643 0.0
ITEM: ATOMS id type x y z
1 1 0.0 0.0 0.0
2 1 -3.0732841878200001e-05 2.9093164646399998 1.56790104037
3 1 2.60450885811 1.4546324850200004 1.56790104037
ITEM: TIMESTEP energy, energy_weight, force_weight, nsims
63 -4057.3578030599999238 1 1 878
ITEM: NUMBER OF ATOMS
3
ITEM: BOX BOUNDS xy xz yz pp pp pp
-2.4500534636706912 5.0390357898883504 -2.4500534636706912
0.0 4.3633791571783594 0.0
0.0 3.13579299634663 0.0
ITEM: ATOMS id type x y z
1 1 0.0 0.0 0.0
2 1 0.046280163764532 2.9089366007405762 1.5678964981700002
3 1 2.5427021624559778 1.4544425564352756 1.5678964981700002
ITEM: TIMESTEP energy, energy_weight, force_weight, nsims
64 -4057.3047667499999988 1 1 878
ITEM: NUMBER OF ATOMS
3
ITEM: BOX BOUNDS xy xz yz pp pp pp
-2.6312015763402496 5.2624031526804993 -2.6312015763402496
0.0 4.3639478000202052 0.0
0.0 3.1358028898444772 0.0
ITEM: ATOMS id type x y z
1 1 0.0 0.0 0.0
2 1 -3.1048178600799998e-05 2.90931569821 1.56790144492
3 1 2.63123262452 1.45463210181 1.56790144492
ITEM: TIMESTEP energy, energy_weight, force_weight, nsims
65 -4057.3379332800000156 1 1 878
ITEM: NUMBER OF ATOMS
3
ITEM: BOX BOUNDS xy xz yz pp pp pp
-2.5195187179387998 5.0390374358775993 -2.5195187179387998
0.0 4.5367236817678736 0.0
0.0 3.1310308389514896 0.1727913068666585
ITEM: ATOMS id type x y z
1 1 0.0 0.0 0.0
2 1 -2.97303208717e-05 2.9957010681717548 1.565515419473102
3 1 2.5195484482600002 1.5410226135964866 1.5655154194796528
ITEM: TIMESTEP energy, energy_weight, force_weight, nsims
66 -4057.231400700000222 1 1 878
ITEM: NUMBER OF ATOMS
3
ITEM: BOX BOUNDS xy xz yz pp pp pp
-2.6576604387902498 5.3153208775804997 -2.6576604387902498
0.0 4.1108053828702271 0.0
0.0 3.1358054436538816 0.0
ITEM: ATOMS id type x y z
1 1 0.0 0.0 0.0
2 1 -3.1360393177699999e-05 2.7405530910799998 1.56790272183
3 1 2.6576917991800002 1.37025229179 1.56790272183
ITEM: TIMESTEP energy, energy_weight, force_weight, nsims
67 -4057.3601068800001032 1 1 878
ITEM: NUMBER OF ATOMS
3
ITEM: BOX BOUNDS xy xz yz pp pp pp
-2.5195187179387998 5.0390374358775993 -2.5195187179387998
0.0 4.3958798927493614 0.0
0.0 3.13579299634663 0.0
ITEM: ATOMS id type x y z
1 1 0.0 0.0 0.0
2 1 -2.97303208717e-05 2.93060388563 1.5678964981700002
3 1 2.5195484482600002 1.46527600712 1.5678964981700002
ITEM: TIMESTEP energy, energy_weight, force_weight, nsims
68 -4056.9195514499999718 1 1 878
ITEM: NUMBER OF ATOMS
3
ITEM: BOX BOUNDS xy xz yz pp pp pp
-2.4283987154574414 5.4640943363157986 -2.4283987154574414
0.0 4.7404851849000292 0.1605199585087902
0.0 3.2929593396901034 0.1528925007415534
ITEM: ATOMS id type x y z
1 1 0.0 0.0 0.0
2 1 0.2291552157910859 3.1348594176717701 1.6464796698412028
3 1 2.806540405070264 1.6056257672253794 1.6464796698433286
ITEM: TIMESTEP energy, energy_weight, force_weight, nsims
69 -4057.3597078499997228 1 1 878
ITEM: NUMBER OF ATOMS
3
ITEM: BOX BOUNDS xy xz yz pp pp pp
-2.5195187179387998 5.0390374358775993 -2.5195187179387998
0.0 4.3946528517721362 0.0
0.0 3.1356448731324775 0.030718495027437
ITEM: ATOMS id type x y z
1 1 0.0 0.0 0.0
2 1 -2.97303208717e-05 2.924665983489473 1.5678224365679196
3 1 2.5195484482600002 1.4699868682865812 1.5678224365669668
ITEM: TIMESTEP energy, energy_weight, force_weight, nsims
70 -4056.9377552100002049 1 1 878
ITEM: NUMBER OF ATOMS
3