ITEM: TIMESTEP energy, energy_weight, force_weight, nsims
0 -2704.9076975200000564 1 1 983
ITEM: NUMBER OF ATOMS
2
ITEM: BOX BOUNDS xy xz yz pp pp pp
-1.61719213180645 3.2343842636128999 -1.61719213180645
0.0 2.8044860792147914 0.0
0.0 5.1625818486713113 0.0
ITEM: ATOMS id type x y z
1 1 -1.0350029643500001e-05 1.86966336905 1.2906454621700001
2 1 1.61720248184 0.934822710168 3.8719363864999998
ITEM: TIMESTEP energy, energy_weight, force_weight, nsims
1 -2704.731927220000216 1 1 983
ITEM: NUMBER OF ATOMS
2
ITEM: BOX BOUNDS xy xz yz pp pp pp
-1.5736760661678336 3.553543189737027 -1.5736760661678336
0.0 3.0946832410353453 0.1948006448561931
0.0 5.3542396065787621 0.1878471737093241
ITEM: ATOMS id type x y z
1 1 0.1191531095694261 1.9848587062268248 1.3385599016468861
2 1 1.8607140139988122 1.1098245348034794 4.0156797049319222
ITEM: TIMESTEP energy, energy_weight, force_weight, nsims
2 -2704.8778645200000028 1 1 983
ITEM: NUMBER OF ATOMS
2
ITEM: BOX BOUNDS xy xz yz pp pp pp
-1.61719213180645 3.2343842636128999 -1.61719213180645
0.0 2.801057631895362 0.0
0.0 5.3610533702393904 0.0
ITEM: ATOMS id type x y z
1 1 -1.0350029643500001e-05 1.8673777301900002 1.3402633425599999
2 1 1.61720248184 0.933679901709 4.0207900276800004
ITEM: TIMESTEP energy, energy_weight, force_weight, nsims
3 -2704.8676861600001758 1 1 983
ITEM: NUMBER OF ATOMS
2
ITEM: BOX BOUNDS xy xz yz pp pp pp
-1.6601877832877 3.3203755665753998 -1.6601877832877
0.0 2.8755282500434608 0.0
0.0 5.1625863384227637 0.0
ITEM: ATOMS id type x y z
1 1 -1.0625201812999998e-05 1.91702496782 1.29064658461
2 1 1.6601984084900002 0.958503282221 3.87193975382
ITEM: TIMESTEP energy, energy_weight, force_weight, nsims
4 -2704.7272641800000202 1 1 983
ITEM: NUMBER OF ATOMS
2
ITEM: BOX BOUNDS xy xz yz pp pp pp
-1.8352652044779774 3.1256391042136578 -1.6586472094966086
-0.1829886378905187 2.7051857101508664 -0.1766179949813688
0.0 4.982518690451978 -0.1829886378905187
ITEM: ATOMS id type x y z
1 1 -0.1080498101492426 1.7577157516886746 1.2456296726110934
2 1 1.398423709882106 0.7644813205691702 3.73688901783936
ITEM: TIMESTEP energy, energy_weight, force_weight, nsims
5 -2704.8864465199999358 1 1 983
ITEM: NUMBER OF ATOMS
2
ITEM: BOX BOUNDS xy xz yz pp pp pp
-1.61719213180645 3.2343842636128999 -1.61719213180645
0.0 2.801057631895362 0.0
0.0 5.3305304859436751 0.0
ITEM: ATOMS id type x y z
1 1 -1.0350029643500001e-05 1.8673777301900002 1.33263262149
2 1 1.61720248184 0.933679901709 3.99789786446
ITEM: TIMESTEP energy, energy_weight, force_weight, nsims
6 -2704.8814404800000376 1 1 983
ITEM: NUMBER OF ATOMS
2
ITEM: BOX BOUNDS xy xz yz pp pp pp
-1.6002262639585094 3.356351377070375 -1.6002262639585094
0.0 2.9153512320423354 0.0747658750605622
0.0 5.2368714438122997 0.0737051377685333
ITEM: ATOMS id type x y z
1 1 0.0457253789310244 1.9128630761402072 1.309217860954578
2 1 1.7103997341817466 1.0024881559060843 3.9276535828580146
ITEM: TIMESTEP energy, energy_weight, force_weight, nsims
7 -2704.906593300000168 1 1 983
ITEM: NUMBER OF ATOMS
2
ITEM: BOX BOUNDS xy xz yz pp pp pp
-1.5828911462884346 3.2343834412544239 -1.5828911462884346
0.0 2.800849980501977 0.0
0.0 5.1625818486713113 0.0
ITEM: ATOMS id type x y z
1 1 0.0228567727067252 1.86723929548566 1.2906454621700001
2 1 1.6286355222617406 0.9336106850209756 3.8719363864999998
ITEM: TIMESTEP energy, energy_weight, force_weight, nsims
8 -2704.8735048600001392 1 1 983
ITEM: NUMBER OF ATOMS
2
ITEM: BOX BOUNDS xy xz yz pp pp pp
-1.7120255248356024 3.1864929147479684 -1.6350250998914524
-0.0781726042276401 2.759268571018355 -0.0770004249441501
0.0 5.0849578660339097 -0.0781726042276401
ITEM: ATOMS id type x y z
1 1 -0.0471128204861539 1.819975116064382 1.2712394665090501
2 1 1.5215802103957212 0.8611208507287338 3.8137183995218488
ITEM: TIMESTEP energy, energy_weight, force_weight, nsims
9 -2704.6306895200000326 1 1 983
ITEM: NUMBER OF ATOMS
2
ITEM: BOX BOUNDS xy xz yz pp pp pp
-1.5623809548537538 3.6399477677755794 -1.5623809548537538
0.0 3.1713042678621424 0.2470734110938413
0.0 5.4047637407511884 0.2360504382061047
ITEM: ATOMS id type x y z
1 1 0.1511285972203477 2.0158547578646453 1.3511909351921341
2 1 1.926438215701076 1.1554495100027573 4.0535728055654694
ITEM: TIMESTEP energy, energy_weight, force_weight, nsims
10 -2704.8656953800000338 1 1 983
ITEM: NUMBER OF ATOMS
2
ITEM: BOX BOUNDS xy xz yz pp pp pp
-1.61719213180645 3.2343842636128999 -1.61719213180645
0.0 2.9284956062659732 0.0
0.0 5.1625818486713113 0.0
ITEM: ATOMS id type x y z
1 1 -1.0350029643500001e-05 1.95233665163 1.2906454621700001
2 1 1.61720248184 0.976158954631 3.8719363864999998
ITEM: TIMESTEP energy, energy_weight, force_weight, nsims
11 -2704.9066060800000744 1 1 983
ITEM: NUMBER OF ATOMS
2
ITEM: BOX BOUNDS xy xz yz pp pp pp
-1.5931815275328622 3.278637096159474 -1.5931815275328622
0.0 2.8448270638491286 0.0442518852246709
0.0 5.1622063920812487 0.0438712471788699
ITEM: ATOMS id type x y z
1 1 0.0270600577868125 1.8782776649496896 1.2905515980243789
2 1 1.6583955108410078 0.966549398902019 3.87165479406116
ITEM: TIMESTEP energy, energy_weight, force_weight, nsims
12 -2704.9073171199997888 1 1 983
ITEM: NUMBER OF ATOMS
2
ITEM: BOX BOUNDS xy xz yz pp pp pp
-1.6249701537402612 3.2304166520988673 -1.6186403591456496
-0.0063391191487839 2.7976194750303126 -0.0063297945946117
0.0 5.156237909274024 -0.0063391191487839
ITEM: ATOMS id type x y z
1 1 -0.0038808153677554 1.8635008384834576 1.2890594773197104
2 1 1.6093273137308882 0.9277795173935752 3.8671784319556802
ITEM: TIMESTEP energy, energy_weight, force_weight, nsims
13 -2704.8814505400000598 1 1 983
ITEM: NUMBER OF ATOMS
2
ITEM: BOX BOUNDS xy xz yz pp pp pp
-1.61719213180645 3.2343842636128999 -1.61719213180645
0.0 2.801057631895362 0.0
0.0 5.348866210334097 0.0
ITEM: ATOMS id type x y z
1 1 -1.0350029643500001e-05 1.8673777301900002 1.33721655258
2 1 1.61720248184 0.933679901709 4.0116496577499996
ITEM: TIMESTEP energy, energy_weight, force_weight, nsims
14 -2704.8480558400001428 1 1 983
ITEM: NUMBER OF ATOMS
2
ITEM: BOX BOUNDS xy xz yz pp pp pp
-1.66979235035705 3.3395847007141 -1.66979235035705
0.0 2.8921638404359284 0.0
0.0 5.1625504429541032 0.0
ITEM: ATOMS id type x y z
1 1 -1.06866710422e-05 1.92811539691 1.29063761074
2 1 1.6698030370300002 0.964048443529 3.87191283222
ITEM: TIMESTEP energy, energy_weight, force_weight, nsims
15 -2704.9004483200001232 1 1 983
ITEM: NUMBER OF ATOMS
2
ITEM: BOX BOUNDS xy xz yz pp pp pp
-1.617191702648075 3.4556336450060514 -1.617191702648075
-2.9771962532069502e-06 2.8010576318958282 0.2212503090324806
0.0 5.1578375941022197 -2.9771962532069502e-06
ITEM: ATOMS id type x y z
1 1 0.055302204123911 1.867376985891248 1.2894593985276359
2 1 1.7831397382370676 0.9336776688119656 3.86837819557908
ITEM: TIMESTEP energy, energy_weight, force_weight, nsims
16 -2704.8957061000000976 1 1 983
ITEM: NUMBER OF ATOMS
2
ITEM: BOX BOUNDS xy xz yz pp pp pp
-1.6171919767524874 3.5188486715411572 -1.6171919767524874
-2.9749594075722534e-06 2.8010576318958282 0.2844648071790586
0.0 5.1547366057577504 -2.9749594075722534e-06
ITEM: ATOMS id type x y z
1 1 0.0711058220521086 1.8673769864504592 1.2886841514423162
2 1 1.8305508727400518 0.9336776704895998 3.8660524543194544
ITEM: TIMESTEP energy, energy_weight, force_weight, nsims
17 -2704.9076854199997796 1 1 983
ITEM: NUMBER OF ATOMS
2
ITEM: BOX BOUNDS xy xz yz pp pp pp
-1.61719213180645 3.2343842636128999 -1.61719213180645
-0.0063194468370546 2.801058156440528 0.0
0.0 5.1625757136185513 -0.0063194468370546
ITEM: ATOMS id type x y z
1 1 -1.0350029643499998e-05 1.865798218175021 1.2906439284030294
2 1 1.6172024818399998 0.9289404914286384 3.8719317852181888
ITEM: TIMESTEP energy, energy_weight, force_weight, nsims
18 -2704.8951062199998888 1 1 983
ITEM: NUMBER OF ATOMS
2
ITEM: BOX BOUNDS xy xz yz pp pp pp
-1.7338081408830162 3.2343835538757113 -1.7338081408830162
0.0 2.798629803682558 0.0
0.0 5.1625818486713113 0.0
ITEM: ATOMS id type x y z
1 1 -0.0777548414391175 1.865759172867501 1.2906454621700001
2 1 1.5783302544329508 0.9328706308174886 3.8719363864999998
ITEM: TIMESTEP energy, energy_weight, force_weight, nsims
19 -2704.8977265200001058 1 1 983
ITEM: NUMBER OF ATOMS
2
ITEM: BOX BOUNDS xy xz yz pp pp pp
-1.5872142406506 3.1744284813012 -1.5872142406506
0.0 2.852049396882657 0.0
0.0 5.1625920857110295 0.0
ITEM: ATOMS id type x y z
1 1 -1.0158171140099999e-05 1.90137234896 1.29064802143
2 1 1.5872243988200002 0.950677047922 3.87194406428
ITEM: TIMESTEP energy, energy_weight, force_weight, nsims
20 -2704.9035921800000324 1 1 983
ITEM: NUMBER OF ATOMS
2
ITEM: BOX BOUNDS xy xz yz pp pp pp
-1.6484502924177812 3.2185093664608293 -1.6230393753705188
-0.0255352522266519 2.7872761145385848 -0.0254109170472622
0.0 5.1371153783835517 -0.0255352522266519
ITEM: ATOMS id type x y z
1 1 -0.0155528526591994 1.8518062094887998 1.2842788445988245
2 1 1.5856119266980204 0.9099346528208624 3.8528365337903608
ITEM: TIMESTEP energy, energy_weight, force_weight, nsims
21 -2704.8094994600000974 1 1 983
ITEM: NUMBER OF ATOMS
2
ITEM: BOX BOUNDS xy xz yz pp pp pp
-1.6850855728531498 3.3701711457062995 -1.6850855728531498
0.0 2.9186524664602982 0.0
0.0 5.1626101502347783 0.0
ITEM: ATOMS id type x y z
1 1 -1.07845476662e-05 1.94577453743 1.29065253756
2 1 1.6850963574 0.972877929028 3.8719576126800002
ITEM: TIMESTEP energy, energy_weight, force_weight, nsims
22 -2704.8165655399998286 1 1 983
ITEM: NUMBER OF ATOMS
2
ITEM: BOX BOUNDS xy xz yz pp pp pp
-1.61719213180645 3.2343842636128999 -1.61719213180645
0.0 2.6312783331297932 0.0
0.0 5.1625818486713113 0.0
ITEM: ATOMS id type x y z
1 1 -1.0350029643500001e-05 1.75419116881 1.2906454621700001
2 1 1.61720248184 0.877087164316 3.8719363864999998
ITEM: TIMESTEP energy, energy_weight, force_weight, nsims
23 -2704.8657625999999254 1 1 983
ITEM: NUMBER OF ATOMS
2
ITEM: BOX BOUNDS xy xz yz pp pp pp
-1.61719213180645 3.2343842636128999 -1.61719213180645
0.0 2.685489847772209 0.0
0.0 5.1625818486713113 0.0
ITEM: ATOMS id type x y z
1 1 -1.0350029643500001e-05 1.79033229423 1.2906454621700001
2 1 1.61720248184 0.895157553546 3.8719363864999998
ITEM: TIMESTEP energy, energy_weight, force_weight, nsims
24 -2704.8982261199998902 1 1 983
ITEM: NUMBER OF ATOMS
2
ITEM: BOX BOUNDS xy xz yz pp pp pp
-1.6171923274891122 3.4872440852154276 -1.6171923274891122
-2.9761486561076254e-06 2.8010576318958288 0.2528595094699068
0.0 5.1563856929754355 -2.9761486561076254e-06
ITEM: ATOMS id type x y z
1 1 0.0632045009258982 1.8673769861531474 1.2890964232478126
2 1 1.8068472568001872 0.9336776695976634 3.867289269727857
ITEM: TIMESTEP energy, energy_weight, force_weight, nsims
25 -2704.8345977200001472 1 1 983
ITEM: NUMBER OF ATOMS
2
ITEM: BOX BOUNDS xy xz yz pp pp pp
-1.6755339235087 3.3510678470173998 -1.6755339235087
0.0 2.9021085322132438 0.0
0.0 5.1625411888082082 0.0
ITEM: ATOMS id type x y z
1 1 -1.07234171104e-05 1.93474521264 1.2906352971999999
2 1 1.67554464693 0.967363319573 3.87190589161
ITEM: TIMESTEP energy, energy_weight, force_weight, nsims
26 -2704.9077007999999296 1 1 983
ITEM: NUMBER OF ATOMS
2
ITEM: BOX BOUNDS xy xz yz pp pp pp
-1.61719213180645 3.2343842636128999 -1.61719213180645
0.0 2.801060866279625 0.0
0.0 5.1625818486713113 0.0
ITEM: ATOMS id type x y z
1 1 -1.0350029643500001e-05 1.86737988645 1.2906454621700001
2 1 1.61720248184 0.93368097983 3.8719363864999998
ITEM: TIMESTEP energy, energy_weight, force_weight, nsims
27 -2704.9045523200002208 1 1 983
ITEM: NUMBER OF ATOMS
2
ITEM: BOX BOUNDS xy xz yz pp pp pp
-1.5760309752987722 3.3102446483095065 -1.5760309752987722
0.0 2.8755150748019714 0.0758616833053829
0.0 5.1614816239260613 0.0747569065212653
ITEM: ATOMS id type x y z
1 1 0.0463954967455029 1.8858673137641576 1.2903704059860841
2 1 1.6878181762619856 0.9896477610342342 3.8711112179449928
ITEM: TIMESTEP energy, energy_weight, force_weight, nsims
28 -2704.83723775999988 1 1 983
ITEM: NUMBER OF ATOMS
2
ITEM: BOX BOUNDS xy xz yz pp pp pp
-1.70022004217455 3.4004400843490999 -1.70022004217455
0.0 2.6494868961214446 0.0
0.0 5.1626059435402372 0.0
ITEM: ATOMS id type x y z
1 1 -1.0881408269900001e-05 1.76633024965 1.29065148589
2 1 1.70023092358 0.883156646468 3.8719544576599998
ITEM: TIMESTEP energy, energy_weight, force_weight, nsims
29 -2704.8896367600000304 1 1 983
ITEM: NUMBER OF ATOMS
2
ITEM: BOX BOUNDS xy xz yz pp pp pp
-1.880477680547035 3.2343844606451144 -1.7097968903398786
-0.1764193708006069 2.799529032633807 -0.1706807902071563
0.0 5.1567422536064926 -0.1764193708006069
ITEM: ATOMS id type x y z
1 1 -0.1044171851502093 1.822253818050218 1.2891855634046488
2 1 1.458323965246746 0.8008558437825914 3.867556690205857
ITEM: TIMESTEP energy, energy_weight, force_weight, nsims
30 -2704.8839035000000878 1 1 983
ITEM: NUMBER OF ATOMS
2
ITEM: BOX BOUNDS xy xz yz pp pp pp
-1.6959986087974828 3.1945360680585227 -1.6319949952892712
-0.0648150614061667 2.766332203662428 -0.0640036135082115
0.0 5.0981669361901298 -0.0648150614061667
ITEM: ATOMS id type x y z
1 1 -0.0391625074832776 1.8280236052639008 1.2745417340486742
2 1 1.5376999667403646 0.8734935369912216 3.8236252021375786
ITEM: TIMESTEP energy, energy_weight, force_weight, nsims
31 -2704.9059893399999056 1 1 983
ITEM: NUMBER OF ATOMS
2
ITEM: BOX BOUNDS xy xz yz pp pp pp
-1.7246599231914224 3.2343848299486835 -1.6171923981409918
-2.979811107040994e-06 2.8010576318958288 -0.1074675250504306
0.0 5.1614614506005872 -2.979811107040994e-06
ITEM: ATOMS id type x y z
1 1 -0.026877220071815 1.8673769852375344 1.2903653626481315
2 1 1.5366021268336908 0.9336776668508254 3.8710960879542312
ITEM: TIMESTEP energy, energy_weight, force_weight, nsims
32 -2704.9074783400001252 1 1 983
ITEM: NUMBER OF ATOMS
2
ITEM: BOX BOUNDS xy xz yz pp pp pp
-1.61719213180645 3.2343842636128999 -1.61719213180645
0.0 2.8389859741040394 0.0
0.0 5.1624417909257998 0.0379256185785329
ITEM: ATOMS id type x y z
1 1 -1.0350029643499998e-05 1.87686095059488 1.2906104477363325
2 1 1.6172024818399998 0.9621250235135646 3.8718313431924862
ITEM: TIMESTEP energy, energy_weight, force_weight, nsims
33 -2704.8968342600001052 1 1 983
ITEM: NUMBER OF ATOMS
2
ITEM: BOX BOUNDS xy xz yz pp pp pp
-1.65439329241115 3.3087865848223 -1.65439329241115
0.0 2.8010665185276574 0.0
0.0 5.1625938271275205 0.0
ITEM: ATOMS id type x y z
1 1 -1.0588117071400001e-05 1.86738365463 1.2906484567800001
2 1 1.6544038805300002 0.933682863901 3.8719453703500002
ITEM: TIMESTEP energy, energy_weight, force_weight, nsims
34 -2704.9008496999999808 1 1 983
ITEM: NUMBER OF ATOMS
2
ITEM: BOX BOUNDS xy xz yz pp pp pp
-1.61719213180645 3.2343842636128999 -1.61719213180645
0.0 3.0159886812704069 0.0
0.0 5.1581059629099402 0.2149286991370966
ITEM: ATOMS id type x y z
1 1 -1.0350029643499998e-05 1.921111471801632 1.2895264907293898
2 1 1.6172024818399998 1.0948772094682002 3.8685794721872578
ITEM: TIMESTEP energy, energy_weight, force_weight, nsims
35 -2704.906539420000172 1 1 983
ITEM: NUMBER OF ATOMS
2
ITEM: BOX BOUNDS xy xz yz pp pp pp
-1.6171933289163106 3.3228866705164722 -1.6171933289163106
0.0 2.8010576574414778 0.0885032469492824
0.0 5.1618220167870925 2.5546115768651694e-08
ITEM: ATOMS id type x y z
1 1 0.0221143836184848 1.8673777365765296 1.2904555041972874
2 1 1.6835789579769532 0.933679920868587 3.871366512586242
ITEM: TIMESTEP energy, energy_weight, force_weight, nsims
36 -2704.9070498999999472 1 1 983
ITEM: NUMBER OF ATOMS
2
ITEM: BOX BOUNDS xy xz yz pp pp pp
-1.61719213180645 3.2343842636128999 -1.61719213180645
0.0 2.801057631895362 0.0
0.0 5.1435830755068492 0.0
ITEM: ATOMS id type x y z
1 1 -1.0350029643500001e-05 1.8673777301900002 1.2858957688799999
2 1 1.61720248184 0.933679901709 3.85768730663
ITEM: TIMESTEP energy, energy_weight, force_weight, nsims
37 -2704.8949059400001716 1 1 983
ITEM: NUMBER OF ATOMS
2
ITEM: BOX BOUNDS xy xz yz pp pp pp
-1.58316603469575 3.1663320693914998 -1.58316603469575
0.0 2.8587640711670176 0.0
0.0 5.1625682868638565 0.0
ITEM: ATOMS id type x y z
1 1 -1.0132262622000001e-05 1.90584881281 1.29064207172
2 1 1.58317616696 0.952915258359 3.8719262151499998
ITEM: TIMESTEP energy, energy_weight, force_weight, nsims
38 -2704.9072122200000196 1 1 983
ITEM: NUMBER OF ATOMS
2
ITEM: BOX BOUNDS xy xz yz pp pp pp
-1.61719213180645 3.2343842636128999 -1.61719213180645
-0.0568925768089806 2.8010581090148512 0.0
0.0 5.162269102831786 -0.0568925768089806
ITEM: ATOMS id type x y z
1 1 -1.0350029643500001e-05 1.8531549040680624 1.2905672757032518
2 1 1.61720248184 0.891010628141366 3.8717018271255288
ITEM: TIMESTEP energy, energy_weight, force_weight, nsims
39 -2704.3400621800001318 1 1 983
ITEM: NUMBER OF ATOMS
2
ITEM: BOX BOUNDS xy xz yz pp pp pp
-1.9995547731740284 3.0467393710606983 -1.6908591991819738
-0.328951932342496 2.6332319383160946 -0.3086955739920547
0.0 4.8420991426184878 -0.328951932342496
ITEM: ATOMS id type x y z
1 1 -0.1888436761426777 1.6732555933551204 1.2105247856509305
2 1 1.2360282740294753 0.6310244126202106 3.631574356963312
ITEM: TIMESTEP energy, energy_weight, force_weight, nsims
40 -2704.8659337600001892 1 1 983
ITEM: NUMBER OF ATOMS
2
ITEM: BOX BOUNDS xy xz yz pp pp pp
-1.61719213180645 3.2343842636128999 -1.61719213180645
0.0 2.801057631895362 0.0
0.0 5.3974563651263532 0.0
ITEM: ATOMS id type x y z
1 1 -1.0350029643500001e-05 1.8673777301900002 1.34936409128
2 1 1.61720248184 0.933679901709 4.04809227384
ITEM: TIMESTEP energy, energy_weight, force_weight, nsims
41 -2704.8977387599998110 1 1 983
ITEM: NUMBER OF ATOMS
2
ITEM: BOX BOUNDS xy xz yz pp pp pp
-1.61719213180645 3.2343842636128999 -1.61719213180645
0.0 3.0602400947874688 0.0
0.0 5.1560726098862322 0.2591822511412979
ITEM: ATOMS id type x y z
1 1 -1.0350029643499998e-05 1.932173434137276 1.2890181524694204
2 1 1.6172024818399998 1.1280666606473759 3.8670544574136398
ITEM: TIMESTEP energy, energy_weight, force_weight, nsims
42 -2704.8999457400000210 1 1 983
ITEM: NUMBER OF ATOMS
2
ITEM: BOX BOUNDS xy xz yz pp pp pp
-1.61719213180645 3.2343842636128999 -1.61719213180645
0.0 2.8554082250611126 0.0
0.0 5.1625818486713113 0.0
ITEM: ATOMS id type x y z
1 1 -1.0350029643500001e-05 1.90361157491 1.2906454621700001
2 1 1.61720248184 0.951796650149 3.8719363864999998
ITEM: TIMESTEP energy, energy_weight, force_weight, nsims
43 -2704.8951602400002230 1 1 983
ITEM: NUMBER OF ATOMS
2
ITEM: BOX BOUNDS xy xz yz pp pp pp
-1.61719213180645 3.2343842636128999 -1.61719213180645
-0.2907920698017565 2.8010602172709058 0.0
0.0 5.154384489312875 -0.2907920698017565
ITEM: ATOMS id type x y z
1 1 -1.0350029643500001e-05 1.7946814363235908 1.2885961223247096
2 1 1.61720248184 0.7155867111437224 3.865788366982085
ITEM: TIMESTEP energy, energy_weight, force_weight, nsims
44 -2704.8752152199999728 1 1 983
ITEM: NUMBER OF ATOMS
2
ITEM: BOX BOUNDS xy xz yz pp pp pp
-1.4765648629914648 3.4935686461316108 -1.4765648629914648
0.0 3.0440092422006639 0.2591852692964346
0.0 5.1501759652956469 0.2464831717276799
ITEM: ATOMS id type x y z
1 1 0.1585374842520052 1.9266441413002656 1.2875439913273481
2 1 1.8584662988894172 1.1173651008983616 3.8626319739700312
ITEM: TIMESTEP energy, energy_weight, force_weight, nsims
45 -2704.8211971599998834 1 1 983
ITEM: NUMBER OF ATOMS
2
ITEM: BOX BOUNDS xy xz yz pp pp pp
-1.5866854588732062 3.4558492289019882 -1.5866854588732062
0.0 3.0066423310720203 0.1354724876957939
0.0 5.2964583021713727 0.1320512123913211
ITEM: ATOMS id type x y z
1 1 0.0828595946778422 1.9494130146755108 1.3241145755478687
2 1 1.786304175350952 1.0572293163912641 3.972343726631372
ITEM: TIMESTEP energy, energy_weight, force_weight, nsims
46 -2704.9071565799999916 1 1 983
ITEM: NUMBER OF ATOMS
2
ITEM: BOX BOUNDS xy xz yz pp pp pp
-1.5931828902008458 3.2343848617750189 -1.5931828902008458
0.0 2.8009578129536116 0.0
0.0 5.1625818486713113 0.0
ITEM: ATOMS id type x y z
1 1 0.0159960616465547 1.867311184007644 1.2906454621700003
2 1 1.6252059099251362 0.93364662894154 3.8719363865000008
ITEM: TIMESTEP energy, energy_weight, force_weight, nsims
47 -2704.8807893200000764 1 1 983
ITEM: NUMBER OF ATOMS
2
ITEM: BOX BOUNDS xy xz yz pp pp pp
-1.490286115256104 3.4682818987072538 -1.490286115256104
0.0 3.0217138109557693 0.2338961195560401
0.0 5.1524343072048859 0.2235303392559629
ITEM: ATOMS id type x y z
1 1 0.1430684668019471 1.921344202069361 1.2881085768014453
2 1 1.8349273166484736 1.1003696088826525 3.8643257304026046
ITEM: TIMESTEP energy, energy_weight, force_weight, nsims
48 -2704.9070142599998692 1 1 983
ITEM: NUMBER OF ATOMS
2
ITEM: BOX BOUNDS xy xz yz pp pp pp
-1.61719213180645 3.2343842636128999 -1.61719213180645
0.0 2.7873050300064794 0.0
0.0 5.1625818486713113 0.0
ITEM: ATOMS id type x y z
1 1 -1.0350029643500001e-05 1.85820929959 1.2906454621700001
2 1 1.61720248184 0.929095730418 3.8719363864999998
ITEM: TIMESTEP energy, energy_weight, force_weight, nsims
49 -2704.9062493400001588 1 1 983
ITEM: NUMBER OF ATOMS
2
ITEM: BOX BOUNDS xy xz yz pp pp pp
-1.61719213180645 3.2343842636128999 -1.61719213180645
0.0 2.7804028539879298 0.0
0.0 5.1625818486713113 0.0
ITEM: ATOMS id type x y z
1 1 -1.0350029643500001e-05 1.85360783418 1.2906454621700001
2 1 1.61720248184 0.926795019803 3.8719363864999998
ITEM: TIMESTEP energy, energy_weight, force_weight, nsims
50 -2704.8984998599999018 1 1 983
ITEM: NUMBER OF ATOMS
2
ITEM: BOX BOUNDS xy xz yz pp pp pp
-1.7166587614051186 3.234383247252767 -1.7166587614051186
0.0 2.7992928264143498 0.0
0.0 5.1625818486713113 0.0
ITEM: ATOMS id type x y z
1 1 -0.0663219874087252 1.8662011894302176 1.2906454621700001
2 1 1.5840464732604208 0.9330916369803118 3.8719363864999998
ITEM: TIMESTEP energy, energy_weight, force_weight, nsims
51 -2704.9074957600000744 1 1 983
ITEM: NUMBER OF ATOMS
2
ITEM: BOX BOUNDS xy xz yz pp pp pp
-1.61719213180645 3.2343842636128999 -1.61719213180645
0.0 2.7941910341037112 0.0
0.0 5.1625818486713113 0.0
ITEM: ATOMS id type x y z
1 1 -1.0350029643500001e-05 1.86279998368 1.2906454621700001
2 1 1.61720248184 0.931391050427 3.8719363864999998
ITEM: TIMESTEP energy, energy_weight, force_weight, nsims
52 -2704.8562262800001008 1 1 983
ITEM: NUMBER OF ATOMS
2
ITEM: BOX BOUNDS xy xz yz pp pp pp
-1.61719213180645 3.2343842636128999 -1.61719213180645
0.0 2.801057631895362 0.0
0.0 4.9429800947090498 0.0
ITEM: ATOMS id type x y z
1 1 -1.0350029643500001e-05 1.8673777301900002 1.2357450236800001
2 1 1.61720248184 0.933679901709 3.70723507103
ITEM: TIMESTEP energy, energy_weight, force_weight, nsims
53 -2704.9008902400000808 1 1 983
ITEM: NUMBER OF ATOMS
2
ITEM: BOX BOUNDS xy xz yz pp pp pp
-1.61719213180645 3.2343842636128999 -1.61719213180645
0.0 2.8520444654269554 0.0
0.0 5.1625818486713113 0.0
ITEM: ATOMS id type x y z
1 1 -1.0350029643500001e-05 1.90136906131 1.2906454621700001
2 1 1.61720248184 0.950675404114 3.8719363864999998
ITEM: TIMESTEP energy, energy_weight, force_weight, nsims
54 -2704.8784514600001786 1 1 983
ITEM: NUMBER OF ATOMS
2
ITEM: BOX BOUNDS xy xz yz pp pp pp
-1.58316603469575 3.1663320693914998 -1.58316603469575
0.0 2.7421227303947738 0.0
0.0 5.1625682868638565 0.0
ITEM: ATOMS id type x y z
1 1 -1.0132262622000001e-05 1.82808767013 1.29064207172
2 1 1.58317616696 0.91403506027 3.8719262151499998
ITEM: TIMESTEP energy, energy_weight, force_weight, nsims
55 -2704.8774520000001758 1 1 983
ITEM: NUMBER OF ATOMS
2
ITEM: BOX BOUNDS xy xz yz pp pp pp
-1.5607553782005998 3.1215107564011997 -1.5607553782005998
0.0 2.8010502191275398 0.0
0.0 5.1625636301569831 0.0
ITEM: ATOMS id type x y z
1 1 -9.98883442042e-06 1.86737278833 1.2906409075400001
2 1 1.56076536704 0.933677430802 3.87192272262
ITEM: TIMESTEP energy, energy_weight, force_weight, nsims
56 -2704.9057851200000188 1 1 983
ITEM: NUMBER OF ATOMS
2
ITEM: BOX BOUNDS xy xz yz pp pp pp
-1.7049580232709708 3.2343827665988205 -1.648061702258186
-0.0575289050296745 2.8008889623678708 -0.0568963210127847
0.0 5.1619469032007412 -0.0575289050296745
ITEM: ATOMS id type x y z
1 1 -0.0348147087738758 1.8528830572180892 1.290486725795921
2 1 1.5642394521008774 0.8904770001210588 3.8714601773984394
ITEM: TIMESTEP energy, energy_weight, force_weight, nsims
57 -2704.867892700000084 1 1 983
ITEM: NUMBER OF ATOMS
2
ITEM: BOX BOUNDS xy xz yz pp pp pp
-1.55252667197865 3.1050533439572998 -1.55252667197865
0.0 2.8010499912638164 0.0
0.0 5.1625641564237572 0.0
ITEM: ATOMS id type x y z
1 1 -9.9361707006e-06 1.8673726364200002 1.2906410391100001
2 1 1.5525366081500004 0.933677354848 3.8719231173200002
ITEM: TIMESTEP energy, energy_weight, force_weight, nsims
58 -2704.9022027599999092 1 1 983
ITEM: NUMBER OF ATOMS
2
ITEM: BOX BOUNDS xy xz yz pp pp pp
-1.61719213180645 3.2343842636128999 -1.61719213180645
0.0 2.7595928256358442 0.0
0.0 5.1625818486713113 0.0
ITEM: ATOMS id type x y z
1 1 -1.0350029643500001e-05 1.83973443756 1.2906454621700001
2 1 1.61720248184 0.919858388081 3.8719363864999998
ITEM: TIMESTEP energy, energy_weight, force_weight, nsims
59 -2704.8951090800001112 1 1 983
ITEM: NUMBER OF ATOMS
2
ITEM: BOX BOUNDS xy xz yz pp pp pp
-1.5005754129926952 3.2343835538757113 -1.5005754129926952
0.0 2.7986298036825584 0.0
0.0 5.1625818486713113 0.0
ITEM: ATOMS id type x y z
1 1 0.0777341413842626 1.8657591728634374 1.2906454621700001
2 1 1.6560739995024212 0.9328706308167676 3.8719363864999998
ITEM: TIMESTEP energy, energy_weight, force_weight, nsims
60 -2704.9016388199997892 1 1 983
ITEM: NUMBER OF ATOMS
2
ITEM: BOX BOUNDS xy xz yz pp pp pp
-1.8194843034060944 3.2343843284299601 -1.61719216421498
0.0 2.801057631895362 -0.2022921391911143
0.0 5.1586153335250717 0.0
ITEM: ATOMS id type x y z
1 1 -0.050583384827577 1.8673777301899996 1.2896538333764913
2 1 1.4654834098499312 0.9336799017089998 3.8689615001410448
ITEM: TIMESTEP energy, energy_weight, force_weight, nsims
61 -2704.8344271199998730 1 1 983
ITEM: NUMBER OF ATOMS
2
ITEM: BOX BOUNDS xy xz yz pp pp pp
-1.7020986214085002 3.4041972428169998 -1.7020986214085002
0.0 2.6458510314291424 0.0
0.0 5.1625944782272066 0.0
ITEM: ATOMS id type x y z
1 1 -1.0893431176899999e-05 1.7639063321 1.29064861956
2 1 1.7021095148400004 0.881944699328 3.8719458586700002
ITEM: TIMESTEP energy, energy_weight, force_weight, nsims
62 -2704.2841219000001730 1 1 983
ITEM: NUMBER OF ATOMS
2
ITEM: BOX BOUNDS xy xz yz pp pp pp
-2.0174281217739019 3.0383241696960961 -1.6944175872345442
-0.3452888194340171 2.62542255092613 -0.3230105345393576
0.0 4.8265355283217338 -0.3452888194340171
ITEM: ATOMS id type x y z
1 1 -0.1975997317413729 1.6639650966553926 1.2066338820841993
2 1 1.2184957796622786 0.6161686348320864 3.619901646241639
ITEM: TIMESTEP energy, energy_weight, force_weight, nsims
63 -2704.8287441799998306 1 1 983
ITEM: NUMBER OF ATOMS
2
ITEM: BOX BOUNDS xy xz yz pp pp pp
-1.7058557798763998 3.4117115597527996 -1.7058557798763998
0.0 2.6385767797740982 0.0
0.0 5.1625916970832568 0.0
ITEM: ATOMS id type x y z
1 1 -1.0917476991099999e-05 1.75905681548 1.29064792427
2 1 1.7058666973500004 0.879519964294 3.87194377281
ITEM: TIMESTEP energy, energy_weight, force_weight, nsims
64 -2704.9072996999998396 1 1 983
ITEM: NUMBER OF ATOMS
2
ITEM: BOX BOUNDS xy xz yz pp pp pp
-1.637770066296495 3.2343834404264218 -1.637770066296495
0.0 2.8009831525032732 0.0
0.0 5.1625818486713113 0.0
ITEM: ATOMS id type x y z
1 1 -0.0137292913163553 1.8673280771043098 1.2906454621700001
2 1 1.6103426654466902 0.9336550754041784 3.8719363864999998
ITEM: TIMESTEP energy, energy_weight, force_weight, nsims
65 -2704.8317008200001510 1 1 983
ITEM: NUMBER OF ATOMS
2
ITEM: BOX BOUNDS xy xz yz pp pp pp
-1.61719213180645 3.2343842636128999 -1.61719213180645
0.0 2.6458427654688422 0.0
0.0 5.1625818486713113 0.0
ITEM: ATOMS id type x y z
1 1 -1.0350029643500001e-05 1.76390082144 1.2906454621700001
2 1 1.61720248184 0.881941944025 3.8719363864999998
ITEM: TIMESTEP energy, energy_weight, force_weight, nsims
66 -2704.8874540199999502 1 1 983
ITEM: NUMBER OF ATOMS
2
ITEM: BOX BOUNDS xy xz yz pp pp pp
-1.5709949579687502 3.1419899159374998 -1.5709949579687502
0.0 2.8010745840885334 0.0
0.0 5.1626099148567377 0.0
ITEM: ATOMS id type x y z
1 1 -1.00543677309e-05 1.86738903168 1.29065247871
2 1 1.57100501234 0.933685552404 3.8719574361400002
ITEM: TIMESTEP energy, energy_weight, force_weight, nsims
67 -2704.907667599999968 1 1 983
ITEM: NUMBER OF ATOMS
2
ITEM: BOX BOUNDS xy xz yz pp pp pp
-1.61719213180645 3.2343842636128999 -1.61719213180645
0.0 2.8136986166490168 0.0
0.0 5.1625670116206672 0.0126388865735808
ITEM: ATOMS id type x y z
1 1 -1.0350029643499998e-05 1.8705388506218098 1.2906417529030965
2 1 1.6172024818399998 0.9431597660277374 3.8719252587110922
ITEM: TIMESTEP energy, energy_weight, force_weight, nsims
68 -2704.8946147800002110 1 1 983
ITEM: NUMBER OF ATOMS
2
ITEM: BOX BOUNDS xy xz yz pp pp pp
-1.9143015490631374 3.234385658869368 -1.617192875988774
0.0 2.8010606063410362 -0.2971086730743635
0.0 5.1540238108971863 2.9744452080329444e-06
ITEM: ATOMS id type x y z
1 1 -0.0742875493388388 1.867378473801613 1.2885059527242555
2 1 1.3943716591431128 0.9336821325430614 3.8655178581702528
ITEM: TIMESTEP energy, energy_weight, force_weight, nsims
69 -2704.8867734599998586 1 1 983
ITEM: NUMBER OF ATOMS
2
ITEM: BOX BOUNDS xy xz yz pp pp pp
-1.8999783261724312 3.234384954999658 -1.716657651260505
-0.1899528317451692 2.7992933290222672 -0.1833206749119263
0.0 5.1558271278446553 -0.1899528317451692
ITEM: ATOMS id type x y z
1 1 -0.112150846792613 1.8187133165702984 1.28895678195961
2 1 1.4465574756218969 0.7906271807063144 3.8668703458885032
ITEM: TIMESTEP energy, energy_weight, force_weight, nsims
70 -2704.9072990200002096 1 1 983
ITEM: NUMBER OF ATOMS
2
ITEM: BOX BOUNDS xy xz yz pp pp pp
-1.6112388877551998 3.2224777755103995 -1.6112388877551998
0.0 2.8113282810885788 0.0
0.0 5.1625769652119864 0.0
ITEM: ATOMS id type x y z
1 1 -1.0311928881599999e-05 1.87422485156 1.2906442413000001
2 1 1.61124919968 0.937103429529 3.8719327239100002
ITEM: TIMESTEP energy, energy_weight, force_weight, nsims
71 -2704.8753221599999962 1 1 983
ITEM: NUMBER OF ATOMS
2
ITEM: BOX BOUNDS xy xz yz pp pp pp