ITEM: TIMESTEP energy, energy_weight, force_weight, nsims
1        -4049.6284470196733309    1    1   99
ITEM: NUMBER OF ATOMS
3         
ITEM: BOX BOUNDS xy xz yz pp pp pp
   -2.1079775713914990      4.2159551427829998     -2.1079775713914990
    0.0000000000000000      3.6511225525286481      0.0000000000000002
    0.0000000000000000      2.6235888853538603      0.0000000000000003
ITEM: ATOMS id type x y z
1      1          0.0000000000000000     0.0000000000000000     0.0000000000000000
2      1         -0.0000248741353418     2.4340960627678050     1.3117944426769301
3      1          2.1080024455268425     1.2170264897608429     1.3117944426769301
ITEM: TIMESTEP energy, energy_weight, force_weight, nsims
2        -4052.7399164229564121    1    1   99
ITEM: NUMBER OF ATOMS
3         
ITEM: BOX BOUNDS xy xz yz pp pp pp
   -2.1893650322876992      4.3787300645753993     -2.1893650322876992
    0.0000000000000000      3.7920897041739119      0.0000000000000002
    0.0000000000000000      2.7248837191852715      0.0000000000000003
ITEM: ATOMS id type x y z
1      1          0.0000000000000000     0.0000000000000000     0.0000000000000000
2      1         -0.0000258345073806     2.5280747183354442     1.3624418595926358
3      1          2.1893908667950805     1.2640149858384677     1.3624418595926358
ITEM: TIMESTEP energy, energy_weight, force_weight, nsims
3        -4053.0198467217564939    1    1   99
ITEM: NUMBER OF ATOMS
3         
ITEM: BOX BOUNDS xy xz yz pp pp pp
   -2.1982287512084491      4.3964575024168990     -2.1982287512084491
    0.0000000000000000      3.8074421085305969      0.0000000000000002
    0.0000000000000000      2.7359155037540361      0.0000000000000003
ITEM: ATOMS id type x y z
1      1          0.0000000000000000     0.0000000000000000     0.0000000000000000
2      1         -0.0000259390992639     2.5383097149593579     1.3679577518770181
3      1          2.1982546903077140     1.2691323935712389     1.3679577518770181
ITEM: TIMESTEP energy, energy_weight, force_weight, nsims
4        -4053.2882313612340113    1    1   99
ITEM: NUMBER OF ATOMS
3         
ITEM: BOX BOUNDS xy xz yz pp pp pp
   -2.2070660112667491      4.4141320225334999     -2.2070660112667491
    0.0000000000000000      3.8227486848145751      0.0000000000000002
    0.0000000000000000      2.7469143576225967      0.0000000000000003
ITEM: ATOMS id type x y z
1      1          0.0000000000000000     0.0000000000000000     0.0000000000000000
2      1         -0.0000260433789322     2.5485141593545433     1.3734571788112984
3      1          2.2070920546456834     1.2742345254600316     1.3734571788112984
ITEM: TIMESTEP energy, energy_weight, force_weight, nsims
5        -4053.5454102117287221    1    1   99
ITEM: NUMBER OF ATOMS
3         
ITEM: BOX BOUNDS xy xz yz pp pp pp
   -2.2158503536001493      4.4317007072003003     -2.2158503536001493
    0.0000000000000000      3.8379636049531407      0.0000000000000002
    0.0000000000000000      2.7578473500907466      0.0000000000000003
ITEM: ATOMS id type x y z
1      1          0.0000000000000000     0.0000000000000000     0.0000000000000000
2      1         -0.0000261470341717     2.5586574992922730     1.3789236750453733
3      1          2.2158765006343231     1.2793061056608674     1.3789236750453733
ITEM: TIMESTEP energy, energy_weight, force_weight, nsims
6        -4053.7916877687612214    1    1   99
ITEM: NUMBER OF ATOMS
3         
ITEM: BOX BOUNDS xy xz yz pp pp pp
   -2.2246082370710991      4.4492164741422000     -2.2246082370710991
    0.0000000000000000      3.8531326970189999      0.0000000000000002
    0.0000000000000000      2.7687474118586906      0.0000000000000003
ITEM: ATOMS id type x y z
1      1          0.0000000000000000     0.0000000000000000     0.0000000000000000
2      1         -0.0000262503771969     2.5687702870012745     1.3843737059293453
3      1          2.2246344874482977     1.2843624100177251     1.3843737059293453
ITEM: TIMESTEP energy, energy_weight, force_weight, nsims
7        -4054.0273392756048452    1    1   99
ITEM: NUMBER OF ATOMS
3         
ITEM: BOX BOUNDS xy xz yz pp pp pp
   -2.2333132028171492      4.4666264056342992     -2.2333132028171492
    0.0000000000000000      3.8682101329394456      0.0000000000000002
    0.0000000000000000      2.7795816122262242      0.0000000000000003
ITEM: ATOMS id type x y z
1      1          0.0000000000000000     0.0000000000000000     0.0000000000000000
2      1         -0.0000263530957928     2.5788219702528199     1.3897908061131121
3      1          2.2333395559129428     1.2893881626866257     1.3897908061131121
ITEM: TIMESTEP energy, energy_weight, force_weight, nsims
8        -4054.2526065055126310    1    1   99
ITEM: NUMBER OF ATOMS
3         
ITEM: BOX BOUNDS xy xz yz pp pp pp
   -2.2419917097007489      4.4839834194014996     -2.2419917097007489
    0.0000000000000000      3.8832417407871849      0.0000000000000002
    0.0000000000000000      2.7903828818935530      0.0000000000000003
ITEM: ATOMS id type x y z
1      1          0.0000000000000000     0.0000000000000000     0.0000000000000000
2      1         -0.0000264555021739     2.5888431012756365     1.3951914409467765
3      1          2.2420181652029245     1.2943986395115479     1.3951914409467765
ITEM: TIMESTEP energy, energy_weight, force_weight, nsims
9        -4054.4677061972565753    1    1   99
ITEM: NUMBER OF ATOMS
3         
ITEM: BOX BOUNDS xy xz yz pp pp pp
   -2.2506437577218987      4.5012875154437992     -2.2506437577218987
    0.0000000000000000      3.8982275205622172      0.0000000000000002
    0.0000000000000000      2.8011512208606764      0.0000000000000003
ITEM: ATOMS id type x y z
1      1          0.0000000000000000     0.0000000000000000     0.0000000000000000
2      1         -0.0000265575963405     2.5988336800697254     1.4005756104303382
3      1          2.2506703153182412     1.2993938404924916     1.4005756104303382
ITEM: TIMESTEP energy, energy_weight, force_weight, nsims
10       -4054.6728440689907984    1    1   99
ITEM: NUMBER OF ATOMS
3         
ITEM: BOX BOUNDS xy xz yz pp pp pp
   -2.2592693468805991      4.5185386937612000     -2.2592693468805991
    0.0000000000000000      3.9131674722645440      0.0000000000000002
    0.0000000000000000      2.8118866291275939      0.0000000000000003
ITEM: ATOMS id type x y z
1      1          0.0000000000000000     0.0000000000000000     0.0000000000000000
2      1         -0.0000266593782924     2.6087937066350868     1.4059433145637970
3      1          2.2592960062588938     1.3043737656294572     1.4059433145637970
ITEM: TIMESTEP energy, energy_weight, force_weight, nsims
11       -4054.8682255667554273    1    1   99
ITEM: NUMBER OF ATOMS
3         
ITEM: BOX BOUNDS xy xz yz pp pp pp
   -2.2678420183143988      4.5356840366287994     -2.2678420183143988
    0.0000000000000000      3.9280157678214573      0.0000000000000002
    0.0000000000000000      2.8225561759941016      0.0000000000000003
ITEM: ATOMS id type x y z
1      1          0.0000000000000000     0.0000000000000000     0.0000000000000000
2      1         -0.0000267605358154     2.6186926287429912     1.4112780879970508
3      1          2.2678687788502163     1.3093231390784656     1.4112780879970508
ITEM: TIMESTEP energy, energy_weight, force_weight, nsims
12       -4050.0328025157414231    1    1   99
ITEM: NUMBER OF ATOMS
3         
ITEM: BOX BOUNDS xy xz yz pp pp pp
   -2.1171852555241006      4.2343705110481995     -2.1171852555241006
    0.0000000000000000      3.6670707218305165      0.0000000000000002
    0.0000000000000000      2.6350487690252944      0.0000000000000003
ITEM: ATOMS id type x y z
1      1          0.0000000000000000     0.0000000000000000     0.0000000000000000
2      1         -0.0000249827860158     2.4447282383651832     1.3175243845126472
3      1          2.1172102383101148     1.2223424834653331     1.3175243845126472
ITEM: TIMESTEP energy, energy_weight, force_weight, nsims
13       -4055.0540768172527351    1    1   99
ITEM: NUMBER OF ATOMS
3         
ITEM: BOX BOUNDS xy xz yz pp pp pp
   -2.2764146897481994      4.5528293794963997     -2.2764146897481994
    0.0000000000000000      3.9428640633783711      0.0000000000000002
    0.0000000000000000      2.8332257228606093      0.0000000000000003
ITEM: ATOMS id type x y z
1      1          0.0000000000000000     0.0000000000000000     0.0000000000000000
2      1         -0.0000268616933388     2.6285915508508966     1.4166128614303046
3      1          2.2764415514415393     1.3142725125274746     1.4166128614303046
ITEM: TIMESTEP energy, energy_weight, force_weight, nsims
14       -4055.2306474850429368    1    1   99
ITEM: NUMBER OF ATOMS
3         
ITEM: BOX BOUNDS xy xz yz pp pp pp
   -2.2849344434570993      4.5698688869141995     -2.2849344434570993
    0.0000000000000000      3.9576207027898711      0.0000000000000002
    0.0000000000000000      2.8438294083267062      0.0000000000000003
ITEM: ATOMS id type x y z
1      1          0.0000000000000000     0.0000000000000000     0.0000000000000000
2      1         -0.0000269622264325     2.6384293685013449     1.4219147041633531
3      1          2.2849614056835326     1.3191913342885262     1.4219147041633531
ITEM: TIMESTEP energy, energy_weight, force_weight, nsims
15       -4055.3982102283143831    1    1   99
ITEM: NUMBER OF ATOMS
3         
ITEM: BOX BOUNDS xy xz yz pp pp pp
   -2.2934277383035488      4.5868554766070995     -2.2934277383035488
    0.0000000000000000      3.9723315141286646      0.0000000000000002
    0.0000000000000000      2.8544001630925977      0.0000000000000003
ITEM: ATOMS id type x y z
1      1          0.0000000000000000     0.0000000000000000     0.0000000000000000
2      1         -0.0000270624473112     2.6482366339230650     1.4272000815462988
3      1          2.2934548007508622     1.3240948802055994     1.4272000815462988
ITEM: TIMESTEP energy, energy_weight, force_weight, nsims
16       -4055.5570480455871802    1    1   99
ITEM: NUMBER OF ATOMS
3         
ITEM: BOX BOUNDS xy xz yz pp pp pp
   -2.3018681154250991      4.6037362308501999     -2.3018681154250991
    0.0000000000000000      3.9869506693220456      0.0000000000000002
    0.0000000000000000      2.8649050564580798      0.0000000000000003
ITEM: ATOMS id type x y z
1      1          0.0000000000000000     0.0000000000000000     0.0000000000000000
2      1         -0.0000271620437615     2.6579827948873294     1.4324525282290399
3      1          2.3018952774688626     1.3289678744347160     1.4324525282290399
ITEM: TIMESTEP energy, energy_weight, force_weight, nsims
17       -4055.7074446156652812    1    1   99
ITEM: NUMBER OF ATOMS
3         
ITEM: BOX BOUNDS xy xz yz pp pp pp
   -2.3103084925466488      4.6206169850932994     -2.3103084925466488
    0.0000000000000000      4.0015698245154248      0.0000000000000002
    0.0000000000000000      2.8754099498235601      0.0000000000000003
ITEM: ATOMS id type x y z
1      1          0.0000000000000000     0.0000000000000000     0.0000000000000000
2      1         -0.0000272616402114     2.6677289558515929     1.4377049749117801
3      1          2.3103357541868621     1.3338408686638321     1.4377049749117801
ITEM: TIMESTEP energy, energy_weight, force_weight, nsims
18       -4055.8496761342207719    1    1   99
ITEM: NUMBER OF ATOMS
3         
ITEM: BOX BOUNDS xy xz yz pp pp pp
   -2.3186959519432992      4.6373919038866003     -2.3186959519432992
    0.0000000000000000      4.0160973235633941      0.0000000000000002
    0.0000000000000000      2.8858489817886310      0.0000000000000003
ITEM: ATOMS id type x y z
1      1          0.0000000000000000     0.0000000000000000     0.0000000000000000
2      1         -0.0000273606122324     2.6774140123584020     1.4429244908943155
3      1          2.3187233125555333     1.3386833112049923     1.4429244908943155
ITEM: TIMESTEP energy, energy_weight, force_weight, nsims
19       -4055.9840080484223108    1    1   99
ITEM: NUMBER OF ATOMS
3         
ITEM: BOX BOUNDS xy xz yz pp pp pp
   -2.3270569524774989      4.6541139049549995     -2.3270569524774989
    0.0000000000000000      4.0305789945386543      0.0000000000000002
    0.0000000000000000      2.8962550830534957      0.0000000000000003
ITEM: ATOMS id type x y z
1      1          0.0000000000000000     0.0000000000000000     0.0000000000000000
2      1         -0.0000274592720387     2.6870685166364816     1.4481275415267478
3      1          2.3270844117495391     1.3435104779021732     1.4481275415267478
ITEM: TIMESTEP energy, energy_weight, force_weight, nsims
20       -4056.1106969617349023    1    1   99
ITEM: NUMBER OF ATOMS
3         
ITEM: BOX BOUNDS xy xz yz pp pp pp
   -2.3353914941492486      4.6707829882984990     -2.3353914941492486
    0.0000000000000000      4.0450148374412080      0.0000000000000002
    0.0000000000000000      2.9066282536181562      0.0000000000000003
ITEM: ATOMS id type x y z
1      1          0.0000000000000000     0.0000000000000000     0.0000000000000000
2      1         -0.0000275576196303     2.6966924686858325     1.4533141268090781
3      1          2.3354190517688806     1.3483223687553756     1.4533141268090781
ITEM: TIMESTEP energy, energy_weight, force_weight, nsims
21       -4056.2299875046101079    1    1   99
ITEM: NUMBER OF ATOMS
3         
ITEM: BOX BOUNDS xy xz yz pp pp pp
   -2.3436995769585511      4.6873991539171005     -2.3436995769585511
    0.0000000000000000      4.0594048522710562      0.0000000000000002
    0.0000000000000000      2.9169684934826110      0.0000000000000003
ITEM: ATOMS id type x y z
1      1          0.0000000000000000     0.0000000000000000     0.0000000000000000
2      1         -0.0000276556550087     2.7062858685064564     1.4584842467413055
3      1          2.3437272326135581     1.3531189837646000     1.4584842467413055
ITEM: TIMESTEP energy, energy_weight, force_weight, nsims
22       -4056.3421184570493097    1    1   99
ITEM: NUMBER OF ATOMS
3         
ITEM: BOX BOUNDS xy xz yz pp pp pp
   -2.3519812009053993      4.7039624018108004     -2.3519812009053993
    0.0000000000000000      4.0737490390281987      0.0000000000000002
    0.0000000000000000      2.9272758026468608      0.0000000000000003
ITEM: ATOMS id type x y z
1      1          0.0000000000000000     0.0000000000000000     0.0000000000000000
2      1         -0.0000277533781700     2.7158487160983529     1.4636379013234304
3      1          2.3520089542835714     1.3579003229298463     1.4636379013234304
ITEM: TIMESTEP energy, energy_weight, force_weight, nsims
23       -4050.4212192086397408    1    1   99
ITEM: NUMBER OF ATOMS
3         
ITEM: BOX BOUNDS xy xz yz pp pp pp
   -2.1263400219317994      4.2526800438635997     -2.1263400219317994
    0.0000000000000000      3.6829272349869755      0.0000000000000002
    0.0000000000000000      2.6464427912963182      0.0000000000000003
ITEM: ATOMS id type x y z
1      1          0.0000000000000000     0.0000000000000000     0.0000000000000000
2      1         -0.0000250908122584     2.4552993095051074     1.3232213956481591
3      1          2.1263651127440588     1.2276279254818676     1.3232213956481591
ITEM: TIMESTEP energy, energy_weight, force_weight, nsims
24       -4056.4473167620963068    1    1   99
ITEM: NUMBER OF ATOMS
3         
ITEM: BOX BOUNDS xy xz yz pp pp pp
   -2.3602363659897989      4.7204727319796005     -2.3602363659897989
    0.0000000000000000      4.0880473977126339      0.0000000000000002
    0.0000000000000000      2.9375501811109044      0.0000000000000003
ITEM: ATOMS id type x y z
1      1          0.0000000000000000     0.0000000000000000     0.0000000000000000
2      1         -0.0000278507891178     2.7253810114615202     1.4687750905554522
3      1          2.3602642167789192     1.3626663862511139     1.4687750905554522
ITEM: TIMESTEP energy, energy_weight, force_weight, nsims
25       -4056.5458039205150271    1    1   99
ITEM: NUMBER OF ATOMS
3         
ITEM: BOX BOUNDS xy xz yz pp pp pp
   -2.3684386133492992      4.7368772266985992     -2.3684386133492992
    0.0000000000000000      4.1022541002516562      0.0000000000000002
    0.0000000000000000      2.9477586981745385      0.0000000000000003
ITEM: ATOMS id type x y z
1      1          0.0000000000000000     0.0000000000000000     0.0000000000000000
2      1         -0.0000279475756371     2.7348522023672319     1.4738793490872693
3      1          2.3684665609249373     1.3674018978844247     1.4738793490872693
ITEM: TIMESTEP energy, energy_weight, force_weight, nsims
26       -4056.6377924533094301    1    1   99
ITEM: NUMBER OF ATOMS
3         
ITEM: BOX BOUNDS xy xz yz pp pp pp
   -2.3766408607087990      4.7532817214175997     -2.3766408607087990
    0.0000000000000000      4.1164608027906775      0.0000000000000002
    0.0000000000000000      2.9579672152381722      0.0000000000000003
ITEM: ATOMS id type x y z
1      1          0.0000000000000000     0.0000000000000000     0.0000000000000000
2      1         -0.0000280443621558     2.7443233932729427     1.4789836076190861
3      1          2.3766689050709568     1.3721374095177350     1.4789836076190861
ITEM: TIMESTEP energy, energy_weight, force_weight, nsims
27       -4056.7234883507480845    1    1   99
ITEM: NUMBER OF ATOMS
3         
ITEM: BOX BOUNDS xy xz yz pp pp pp
   -2.3847901903433990      4.7695803806867989     -2.3847901903433990
    0.0000000000000000      4.1305758491842859      0.0000000000000002
    0.0000000000000000      2.9681098709013951      0.0000000000000003
ITEM: ATOMS id type x y z
1      1          0.0000000000000000     0.0000000000000000     0.0000000000000000
2      1         -0.0000281405242457     2.7537334797211974     1.4840549354506976
3      1          2.3848183308676458     1.3768423694630887     1.4840549354506976
ITEM: TIMESTEP energy, energy_weight, force_weight, nsims
28       -4056.8030910723650777    1    1   99
ITEM: NUMBER OF ATOMS
3         
ITEM: BOX BOUNDS xy xz yz pp pp pp
   -2.3929395199779990      4.7858790399559998     -2.3929395199779990
    0.0000000000000000      4.1446908955778952      0.0000000000000002
    0.0000000000000000      2.9782525265646185      0.0000000000000003
ITEM: ATOMS id type x y z
1      1          0.0000000000000000     0.0000000000000000     0.0000000000000000
2      1         -0.0000282366863350     2.7631435661694526     1.4891262632823092
3      1          2.3929677566643361     1.3815473294084426     1.4891262632823092
ITEM: TIMESTEP energy, energy_weight, force_weight, nsims
29       -4056.8767935469591066    1    1   99
ITEM: NUMBER OF ATOMS
3         
ITEM: BOX BOUNDS xy xz yz pp pp pp
   -2.4010359318876988      4.8020718637753994     -2.4010359318876988
    0.0000000000000000      4.1587142858260906      0.0000000000000002
    0.0000000000000000      2.9883293208274311      0.0000000000000003
ITEM: ATOMS id type x y z
1      1          0.0000000000000000     0.0000000000000000     0.0000000000000000
2      1         -0.0000283322239956     2.7724925481602511     1.4941646604137155
3      1          2.4010642641116959     1.3862217376658394     1.4941646604137155
ITEM: TIMESTEP energy, energy_weight, force_weight, nsims
30       -4056.9447809480807337    1    1   99
ITEM: NUMBER OF ATOMS
3         
ITEM: BOX BOUNDS xy xz yz pp pp pp
   -2.4091323437974008      4.8182646875947999     -2.4091323437974008
    0.0000000000000000      4.1727376760742860      0.0000000000000002
    0.0000000000000000      2.9984061150902437      0.0000000000000003
ITEM: ATOMS id type x y z
1      1          0.0000000000000000     0.0000000000000000     0.0000000000000000
2      1         -0.0000284277616573     2.7818415301510497     1.4992030575451218
3      1          2.4091607715590566     1.3908961459232363     1.4992030575451218
ITEM: TIMESTEP energy, energy_weight, force_weight, nsims
31       -4057.0072339593994002    1    1   99
ITEM: NUMBER OF ATOMS
3         
ITEM: BOX BOUNDS xy xz yz pp pp pp
   -2.4171758379821990      4.8343516759643999     -2.4171758379821990
    0.0000000000000000      4.1866694101770703      0.0000000000000002
    0.0000000000000000      3.0084170479526455      0.0000000000000003
ITEM: ATOMS id type x y z
1      1          0.0000000000000000     0.0000000000000000     0.0000000000000000
2      1         -0.0000285226748875     2.7911294076843935     1.5042085239763228
3      1          2.4172043606570885     1.3955400024926770     1.5042085239763228
ITEM: TIMESTEP energy, energy_weight, force_weight, nsims
32       -4057.0643251011679240    1    1   99
ITEM: NUMBER OF ATOMS
3         
ITEM: BOX BOUNDS xy xz yz pp pp pp
   -2.4251928733045509      4.8503857466091000     -2.4251928733045509
    0.0000000000000000      4.2005553162071445      0.0000000000000002
    0.0000000000000000      3.0183950501148429      0.0000000000000003
ITEM: ATOMS id type x y z
1      1          0.0000000000000000     0.0000000000000000     0.0000000000000000
2      1         -0.0000286172759056     2.8003867329890069     1.5091975250574214
3      1          2.4252214905804546     1.4001685832181379     1.5091975250574214
ITEM: TIMESTEP energy, energy_weight, force_weight, nsims
33       -4057.1162218595286504    1    1   99
ITEM: NUMBER OF ATOMS
3         
ITEM: BOX BOUNDS xy xz yz pp pp pp
   -2.4332099086268988      4.8664198172537994     -2.4332099086268988
    0.0000000000000000      4.2144412222372223      0.0000000000000002
    0.0000000000000000      3.0283730522770389      0.0000000000000003
ITEM: ATOMS id type x y z
1      1          0.0000000000000000     0.0000000000000000     0.0000000000000000
2      1         -0.0000287118769212     2.8096440582936224     1.5141865261385195
3      1          2.4332386205038214     1.4047971639436001     1.5141865261385195
ITEM: TIMESTEP energy, energy_weight, force_weight, nsims
34       -4050.7943063615275605    1    1   99
ITEM: NUMBER OF ATOMS
3         
ITEM: BOX BOUNDS xy xz yz pp pp pp
   -2.1354683294770491      4.2709366589541000     -2.1354683294770491
    0.0000000000000000      3.6987379200707253      0.0000000000000002
    0.0000000000000000      2.6578038828671358      0.0000000000000003
ITEM: ATOMS id type x y z
1      1          0.0000000000000000     0.0000000000000000     0.0000000000000000
2      1         -0.0000251985262871     2.4658398284163021     1.3289019414335679
3      1          2.1354935280033382     1.2328980916544230     1.3289019414335679
ITEM: TIMESTEP energy, energy_weight, force_weight, nsims
35       -4057.1630879110298338    1    1   99
ITEM: NUMBER OF ATOMS
3         
ITEM: BOX BOUNDS xy xz yz pp pp pp
   -2.4411740262243491      4.8823480524487000     -2.4411740262243491
    0.0000000000000000      4.2282354721218862      0.0000000000000002
    0.0000000000000000      3.0382851930388259      0.0000000000000003
ITEM: ATOMS id type x y z
1      1          0.0000000000000000     0.0000000000000000     0.0000000000000000
2      1         -0.0000288058535088     2.8188402791407809     1.5191425965194130
3      1          2.4412028320778596     1.4093951929811053     1.5191425965194130
ITEM: TIMESTEP energy, energy_weight, force_weight, nsims
36       -4057.2050797211982172    1    1   99
ITEM: NUMBER OF ATOMS
3         
ITEM: BOX BOUNDS xy xz yz pp pp pp
   -2.4491116849593486      4.8982233699186990     -2.4491116849593486
    0.0000000000000000      4.2419838939338428      0.0000000000000002
    0.0000000000000000      3.0481644031004063      0.0000000000000003
ITEM: ATOMS id type x y z
1      1          0.0000000000000000     0.0000000000000000     0.0000000000000000
2      1         -0.0000288995178818     2.8280059477592112     1.5240822015502031
3      1          2.4491405844772323     1.4139779461746316     1.5240822015502031
ITEM: TIMESTEP energy, energy_weight, force_weight, nsims
37       -4057.2423484493406249    1    1   99
ITEM: NUMBER OF ATOMS
3         
ITEM: BOX BOUNDS xy xz yz pp pp pp
   -2.4570493436943486      4.9140986873886998     -2.4570493436943486
    0.0000000000000000      4.2557323157457994      0.0000000000000002
    0.0000000000000000      3.0580436131619879      0.0000000000000003
ITEM: ATOMS id type x y z
1      1          0.0000000000000000     0.0000000000000000     0.0000000000000000
2      1         -0.0000289931822546     2.8371716163776415     1.5290218065809940
3      1          2.4570783368766063     1.4185606993681581     1.5290218065809940
ITEM: TIMESTEP energy, energy_weight, force_weight, nsims
38       -4057.2750422615076786    1    1   99
ITEM: NUMBER OF ATOMS
3         
ITEM: BOX BOUNDS xy xz yz pp pp pp
   -2.4649340847044487      4.9298681694089002     -2.4649340847044487
    0.0000000000000000      4.2693890814123430      0.0000000000000002
    0.0000000000000000      3.0678569618231588      0.0000000000000003
ITEM: ATOMS id type x y z
1      1          0.0000000000000000     0.0000000000000000     0.0000000000000000
2      1         -0.0000290862221986     2.8462761805386156     1.5339284809115794
3      1          2.4649631709266502     1.4231129008737275     1.5339284809115794
ITEM: TIMESTEP energy, energy_weight, force_weight, nsims
39       -4057.3033049699292860    1    1   99
ITEM: NUMBER OF ATOMS
3         
ITEM: BOX BOUNDS xy xz yz pp pp pp
   -2.4728188257145494      4.9456376514290996     -2.4728188257145494
    0.0000000000000000      4.2830458470788875      0.0000000000000002
    0.0000000000000000      3.0776703104843284      0.0000000000000003
ITEM: ATOMS id type x y z
1      1          0.0000000000000000     0.0000000000000000     0.0000000000000000
2      1         -0.0000291792621430     2.8553807446995902     1.5388351552421642
3      1          2.4728480049766937     1.4276651023792974     1.5388351552421642
ITEM: TIMESTEP energy, energy_weight, force_weight, nsims
40       -4057.3272729036984856    1    1   99
ITEM: NUMBER OF ATOMS
3         
ITEM: BOX BOUNDS xy xz yz pp pp pp
   -2.4806506489997493      4.9613012979995004     -2.4806506489997493
    0.0000000000000000      4.2966109566000181      0.0000000000000002
    0.0000000000000000      3.0874177977450881      0.0000000000000003
ITEM: ATOMS id type x y z
1      1          0.0000000000000000     0.0000000000000000     0.0000000000000000
2      1         -0.0000292716776574     2.8644242044031079     1.5437088988725440
3      1          2.4806799206774088     1.4321867521969103     1.5437088988725440
ITEM: TIMESTEP energy, energy_weight, force_weight, nsims
41       -4057.3470817116267426    1    1   99
ITEM: NUMBER OF ATOMS
3         
ITEM: BOX BOUNDS xy xz yz pp pp pp
   -2.4884824722849492      4.9769649445698994     -2.4884824722849492
    0.0000000000000000      4.3101760661211488      0.0000000000000002
    0.0000000000000000      3.0971652850058482      0.0000000000000003
ITEM: ATOMS id type x y z
1      1          0.0000000000000000     0.0000000000000000     0.0000000000000000
2      1         -0.0000293640931726     2.8734676641066259     1.5485826425029241
3      1          2.4885118363781227     1.4367084020145231     1.5485826425029241
ITEM: TIMESTEP energy, energy_weight, force_weight, nsims
42       -4057.3628614641870627    1    1   99
ITEM: NUMBER OF ATOMS
3         
ITEM: BOX BOUNDS xy xz yz pp pp pp
   -2.4962613778452494      4.9925227556904996     -2.4962613778452494
    0.0000000000000000      4.3236495194968665      0.0000000000000002
    0.0000000000000000      3.1068469108661980      0.0000000000000003
ITEM: ATOMS id type x y z
1      1          0.0000000000000000     0.0000000000000000     0.0000000000000000
2      1         -0.0000294558842583     2.8824500193526879     1.5534234554330990
3      1          2.4962908337295082     1.4411995001441791     1.5534234554330990
ITEM: TIMESTEP energy, energy_weight, force_weight, nsims
43       -4057.3747378780285544    1    1   99
ITEM: NUMBER OF ATOMS
3         
ITEM: BOX BOUNDS xy xz yz pp pp pp
   -2.5040402834055491      5.0080805668110999     -2.5040402834055491
    0.0000000000000000      4.3371229728725833      0.0000000000000002
    0.0000000000000000      3.1165285367265474      0.0000000000000003
ITEM: ATOMS id type x y z
1      1          0.0000000000000000     0.0000000000000000     0.0000000000000000
2      1         -0.0000295476753435     2.8914323745987489     1.5582642683632737
3      1          2.5040698310808946     1.4456905982738346     1.5582642683632737
ITEM: TIMESTEP energy, energy_weight, force_weight, nsims
44       -4057.3828336765491258    1    1   99
ITEM: NUMBER OF ATOMS
3         
ITEM: BOX BOUNDS xy xz yz pp pp pp
   -2.5117927301033989      5.0235854602067995     -2.5117927301033989
    0.0000000000000000      4.3505505981755945      0.0000000000000002
    0.0000000000000000      3.1261772318866914      0.0000000000000003
ITEM: ATOMS id type x y z
1      1          0.0000000000000000     0.0000000000000000     0.0000000000000000
2      1         -0.0000296391542146     2.9003841776160826     1.5630886159433457
3      1          2.5118223692576152     1.4501664205595122     1.5630886159433457
ITEM: TIMESTEP energy, energy_weight, force_weight, nsims
45       -4051.1526110595232240    1    1   99
ITEM: NUMBER OF ATOMS
3         
ITEM: BOX BOUNDS xy xz yz pp pp pp
   -2.1445437192973995      4.2890874385947999     -2.1445437192973995
    0.0000000000000000      3.7144569490090631      0.0000000000000002
    0.0000000000000000      2.6690991130375443      0.0000000000000003
ITEM: ATOMS id type x y z
1      1          0.0000000000000000     0.0000000000000000     0.0000000000000000
2      1         -0.0000253056158874     2.4763192428700411     1.3345495565187722
3      1          2.1445690249132876     1.2381377061390217     1.3345495565187722
ITEM: TIMESTEP energy, energy_weight, force_weight, nsims
46       -4057.3872687259477061    1    1   99
ITEM: NUMBER OF ATOMS
3         
ITEM: BOX BOUNDS xy xz yz pp pp pp
   -2.5195187179387988      5.0390374358775993     -2.5195187179387988