ITEM: TIMESTEP energy, energy_weight, force_weight, nsims
0 -1346.212795818157 1 1 1
ITEM: NUMBER OF ATOMS
1
ITEM: BOX BOUNDS pp pp pp
0.0 10.0000212275277001
0.0 10.0000212275277001
0.0 10.0000212275277001
ITEM: ATOMS id type x y z
1 1 0.0 0.0 0.0
